********************************************************************************
*                       GENERAL UTILITY LATTICE PROGRAM                        *
*                                 Julian Gale                                  *
*                      Nanochemistry Research Institute                        *
*                           Department of Chemistry                            *
*                    Curtin University, Western Australia                      *
********************************************************************************
* Version = 4.3.5 * Last modified = 16th December 2015                         *
********************************************************************************
*  optimise     - perform optimisation run                                     *
*  conp         - constant pressure calculation                                *
*  property     - calculate properties for final geometry                      *
*  phonon       - calculate phonons for final geometry                         *
*  eigenvectors - output phonon eigenvectors                                   *
********************************************************************************

  Job Started  at 13:58.04 13th November   2017                               

  Number of CPUs =     1


  Total number of configurations input =   1

********************************************************************************
*  Input for Configuration =   1                                               *
********************************************************************************

  Formula = OMg                                                         

  Number of irreducible atoms/shells =       2


  Total number atoms/shells =       2

  Dimensionality = 3               :  Bulk   



  Cartesian lattice vectors (Angstroms) :

        3.009788    0.000000    0.000000
        1.504894    2.606553    0.000000
        1.504894    0.868851    2.457482

  Cell parameters (Angstroms/Degrees):

  a =       3.0098    alpha =  60.0000
  b =       3.0098    beta  =  60.0000
  c =       3.0098    gamma =  60.0000

  Initial cell volume =          19.279366 Angs**3

  Shrinking factors =      8     8     8

  Temperature of configuration =  0.000     K 

  Pressure of configuration =         0.000 GPa 

  Fractional coordinates of asymmetric unit :

--------------------------------------------------------------------------------
   No.  Atomic       x           y          z         Charge      Occupancy
        Label      (Frac)      (Frac)     (Frac)        (e)         (Frac)  
--------------------------------------------------------------------------------
      1 O     c    0.500000    0.500000    0.500000    -2.00000    1.000000    
      2 Mg    c    0.000000 *  0.000000 *  0.000000 *   2.00000    1.000000    
--------------------------------------------------------------------------------


  Brillouin zone sampling points :

--------------------------------------------------------------------------------
  Point number          x          y          z            Weight
--------------------------------------------------------------------------------
        1          10.000000  10.000000  10.000000         0.0039
        2           0.062500   0.062500   0.062500         0.0039
        3           0.062500   0.062500   0.187500         0.0039
        4           0.062500   0.062500   0.312500         0.0039
        5           0.062500   0.062500   0.437500         0.0039
        6           0.062500   0.062500   0.562500         0.0039
        7           0.062500   0.062500   0.687500         0.0039
        8           0.062500   0.062500   0.812500         0.0039
        9           0.062500   0.062500   0.937500         0.0039
       10           0.062500   0.187500   0.062500         0.0039
       11           0.062500   0.187500   0.187500         0.0039
       12           0.062500   0.187500   0.312500         0.0039
       13           0.062500   0.187500   0.437500         0.0039
       14           0.062500   0.187500   0.562500         0.0039
       15           0.062500   0.187500   0.687500         0.0039
       16           0.062500   0.187500   0.812500         0.0039
       17           0.062500   0.187500   0.937500         0.0039
       18           0.062500   0.312500   0.062500         0.0039
       19           0.062500   0.312500   0.187500         0.0039
       20           0.062500   0.312500   0.312500         0.0039
       21           0.062500   0.312500   0.437500         0.0039
       22           0.062500   0.312500   0.562500         0.0039
       23           0.062500   0.312500   0.687500         0.0039
       24           0.062500   0.312500   0.812500         0.0039
       25           0.062500   0.312500   0.937500         0.0039
       26           0.062500   0.437500   0.062500         0.0039
       27           0.062500   0.437500   0.187500         0.0039
       28           0.062500   0.437500   0.312500         0.0039
       29           0.062500   0.437500   0.437500         0.0039
       30           0.062500   0.437500   0.562500         0.0039
       31           0.062500   0.437500   0.687500         0.0039
       32           0.062500   0.437500   0.812500         0.0039
       33           0.062500   0.437500   0.937500         0.0039
       34           0.062500   0.562500   0.062500         0.0039
       35           0.062500   0.562500   0.187500         0.0039
       36           0.062500   0.562500   0.312500         0.0039
       37           0.062500   0.562500   0.437500         0.0039
       38           0.062500   0.562500   0.562500         0.0039
       39           0.062500   0.562500   0.687500         0.0039
       40           0.062500   0.562500   0.812500         0.0039
       41           0.062500   0.562500   0.937500         0.0039
       42           0.062500   0.687500   0.062500         0.0039
       43           0.062500   0.687500   0.187500         0.0039
       44           0.062500   0.687500   0.312500         0.0039
       45           0.062500   0.687500   0.437500         0.0039
       46           0.062500   0.687500   0.562500         0.0039
       47           0.062500   0.687500   0.687500         0.0039
       48           0.062500   0.687500   0.812500         0.0039
       49           0.062500   0.687500   0.937500         0.0039
       50           0.062500   0.812500   0.062500         0.0039
       51           0.062500   0.812500   0.187500         0.0039
       52           0.062500   0.812500   0.312500         0.0039
       53           0.062500   0.812500   0.437500         0.0039
       54           0.062500   0.812500   0.562500         0.0039
       55           0.062500   0.812500   0.687500         0.0039
       56           0.062500   0.812500   0.812500         0.0039
       57           0.062500   0.812500   0.937500         0.0039
       58           0.062500   0.937500   0.062500         0.0039
       59           0.062500   0.937500   0.187500         0.0039
       60           0.062500   0.937500   0.312500         0.0039
       61           0.062500   0.937500   0.437500         0.0039
       62           0.062500   0.937500   0.562500         0.0039
       63           0.062500   0.937500   0.687500         0.0039
       64           0.062500   0.937500   0.812500         0.0039
       65           0.062500   0.937500   0.937500         0.0039
       66           0.187500   0.062500   0.062500         0.0039
       67           0.187500   0.062500   0.187500         0.0039
       68           0.187500   0.062500   0.312500         0.0039
       69           0.187500   0.062500   0.437500         0.0039
       70           0.187500   0.062500   0.562500         0.0039
       71           0.187500   0.062500   0.687500         0.0039
       72           0.187500   0.062500   0.812500         0.0039
       73           0.187500   0.062500   0.937500         0.0039
       74           0.187500   0.187500   0.062500         0.0039
       75           0.187500   0.187500   0.187500         0.0039
       76           0.187500   0.187500   0.312500         0.0039
       77           0.187500   0.187500   0.437500         0.0039
       78           0.187500   0.187500   0.562500         0.0039
       79           0.187500   0.187500   0.687500         0.0039
       80           0.187500   0.187500   0.812500         0.0039
       81           0.187500   0.187500   0.937500         0.0039
       82           0.187500   0.312500   0.062500         0.0039
       83           0.187500   0.312500   0.187500         0.0039
       84           0.187500   0.312500   0.312500         0.0039
       85           0.187500   0.312500   0.437500         0.0039
       86           0.187500   0.312500   0.562500         0.0039
       87           0.187500   0.312500   0.687500         0.0039
       88           0.187500   0.312500   0.812500         0.0039
       89           0.187500   0.312500   0.937500         0.0039
       90           0.187500   0.437500   0.062500         0.0039
       91           0.187500   0.437500   0.187500         0.0039
       92           0.187500   0.437500   0.312500         0.0039
       93           0.187500   0.437500   0.437500         0.0039
       94           0.187500   0.437500   0.562500         0.0039
       95           0.187500   0.437500   0.687500         0.0039
       96           0.187500   0.437500   0.812500         0.0039
       97           0.187500   0.437500   0.937500         0.0039
       98           0.187500   0.562500   0.062500         0.0039
       99           0.187500   0.562500   0.187500         0.0039
      100           0.187500   0.562500   0.312500         0.0039
      101           0.187500   0.562500   0.437500         0.0039
      102           0.187500   0.562500   0.562500         0.0039
      103           0.187500   0.562500   0.687500         0.0039
      104           0.187500   0.562500   0.812500         0.0039
      105           0.187500   0.562500   0.937500         0.0039
      106           0.187500   0.687500   0.062500         0.0039
      107           0.187500   0.687500   0.187500         0.0039
      108           0.187500   0.687500   0.312500         0.0039
      109           0.187500   0.687500   0.437500         0.0039
      110           0.187500   0.687500   0.562500         0.0039
      111           0.187500   0.687500   0.687500         0.0039
      112           0.187500   0.687500   0.812500         0.0039
      113           0.187500   0.687500   0.937500         0.0039
      114           0.187500   0.812500   0.062500         0.0039
      115           0.187500   0.812500   0.187500         0.0039
      116           0.187500   0.812500   0.312500         0.0039
      117           0.187500   0.812500   0.437500         0.0039
      118           0.187500   0.812500   0.562500         0.0039
      119           0.187500   0.812500   0.687500         0.0039
      120           0.187500   0.812500   0.812500         0.0039
      121           0.187500   0.812500   0.937500         0.0039
      122           0.187500   0.937500   0.062500         0.0039
      123           0.187500   0.937500   0.187500         0.0039
      124           0.187500   0.937500   0.312500         0.0039
      125           0.187500   0.937500   0.437500         0.0039
      126           0.187500   0.937500   0.562500         0.0039
      127           0.187500   0.937500   0.687500         0.0039
      128           0.187500   0.937500   0.812500         0.0039
      129           0.187500   0.937500   0.937500         0.0039
      130           0.312500   0.062500   0.062500         0.0039
      131           0.312500   0.062500   0.187500         0.0039
      132           0.312500   0.062500   0.312500         0.0039
      133           0.312500   0.062500   0.437500         0.0039
      134           0.312500   0.062500   0.562500         0.0039
      135           0.312500   0.062500   0.687500         0.0039
      136           0.312500   0.062500   0.812500         0.0039
      137           0.312500   0.062500   0.937500         0.0039
      138           0.312500   0.187500   0.062500         0.0039
      139           0.312500   0.187500   0.187500         0.0039
      140           0.312500   0.187500   0.312500         0.0039
      141           0.312500   0.187500   0.437500         0.0039
      142           0.312500   0.187500   0.562500         0.0039
      143           0.312500   0.187500   0.687500         0.0039
      144           0.312500   0.187500   0.812500         0.0039
      145           0.312500   0.187500   0.937500         0.0039
      146           0.312500   0.312500   0.062500         0.0039
      147           0.312500   0.312500   0.187500         0.0039
      148           0.312500   0.312500   0.312500         0.0039
      149           0.312500   0.312500   0.437500         0.0039
      150           0.312500   0.312500   0.562500         0.0039
      151           0.312500   0.312500   0.687500         0.0039
      152           0.312500   0.312500   0.812500         0.0039
      153           0.312500   0.312500   0.937500         0.0039
      154           0.312500   0.437500   0.062500         0.0039
      155           0.312500   0.437500   0.187500         0.0039
      156           0.312500   0.437500   0.312500         0.0039
      157           0.312500   0.437500   0.437500         0.0039
      158           0.312500   0.437500   0.562500         0.0039
      159           0.312500   0.437500   0.687500         0.0039
      160           0.312500   0.437500   0.812500         0.0039
      161           0.312500   0.437500   0.937500         0.0039
      162           0.312500   0.562500   0.062500         0.0039
      163           0.312500   0.562500   0.187500         0.0039
      164           0.312500   0.562500   0.312500         0.0039
      165           0.312500   0.562500   0.437500         0.0039
      166           0.312500   0.562500   0.562500         0.0039
      167           0.312500   0.562500   0.687500         0.0039
      168           0.312500   0.562500   0.812500         0.0039
      169           0.312500   0.562500   0.937500         0.0039
      170           0.312500   0.687500   0.062500         0.0039
      171           0.312500   0.687500   0.187500         0.0039
      172           0.312500   0.687500   0.312500         0.0039
      173           0.312500   0.687500   0.437500         0.0039
      174           0.312500   0.687500   0.562500         0.0039
      175           0.312500   0.687500   0.687500         0.0039
      176           0.312500   0.687500   0.812500         0.0039
      177           0.312500   0.687500   0.937500         0.0039
      178           0.312500   0.812500   0.062500         0.0039
      179           0.312500   0.812500   0.187500         0.0039
      180           0.312500   0.812500   0.312500         0.0039
      181           0.312500   0.812500   0.437500         0.0039
      182           0.312500   0.812500   0.562500         0.0039
      183           0.312500   0.812500   0.687500         0.0039
      184           0.312500   0.812500   0.812500         0.0039
      185           0.312500   0.812500   0.937500         0.0039
      186           0.312500   0.937500   0.062500         0.0039
      187           0.312500   0.937500   0.187500         0.0039
      188           0.312500   0.937500   0.312500         0.0039
      189           0.312500   0.937500   0.437500         0.0039
      190           0.312500   0.937500   0.562500         0.0039
      191           0.312500   0.937500   0.687500         0.0039
      192           0.312500   0.937500   0.812500         0.0039
      193           0.312500   0.937500   0.937500         0.0039
      194           0.437500   0.062500   0.062500         0.0039
      195           0.437500   0.062500   0.187500         0.0039
      196           0.437500   0.062500   0.312500         0.0039
      197           0.437500   0.062500   0.437500         0.0039
      198           0.437500   0.062500   0.562500         0.0039
      199           0.437500   0.062500   0.687500         0.0039
      200           0.437500   0.062500   0.812500         0.0039
      201           0.437500   0.062500   0.937500         0.0039
      202           0.437500   0.187500   0.062500         0.0039
      203           0.437500   0.187500   0.187500         0.0039
      204           0.437500   0.187500   0.312500         0.0039
      205           0.437500   0.187500   0.437500         0.0039
      206           0.437500   0.187500   0.562500         0.0039
      207           0.437500   0.187500   0.687500         0.0039
      208           0.437500   0.187500   0.812500         0.0039
      209           0.437500   0.187500   0.937500         0.0039
      210           0.437500   0.312500   0.062500         0.0039
      211           0.437500   0.312500   0.187500         0.0039
      212           0.437500   0.312500   0.312500         0.0039
      213           0.437500   0.312500   0.437500         0.0039
      214           0.437500   0.312500   0.562500         0.0039
      215           0.437500   0.312500   0.687500         0.0039
      216           0.437500   0.312500   0.812500         0.0039
      217           0.437500   0.312500   0.937500         0.0039
      218           0.437500   0.437500   0.062500         0.0039
      219           0.437500   0.437500   0.187500         0.0039
      220           0.437500   0.437500   0.312500         0.0039
      221           0.437500   0.437500   0.437500         0.0039
      222           0.437500   0.437500   0.562500         0.0039
      223           0.437500   0.437500   0.687500         0.0039
      224           0.437500   0.437500   0.812500         0.0039
      225           0.437500   0.437500   0.937500         0.0039
      226           0.437500   0.562500   0.062500         0.0039
      227           0.437500   0.562500   0.187500         0.0039
      228           0.437500   0.562500   0.312500         0.0039
      229           0.437500   0.562500   0.437500         0.0039
      230           0.437500   0.562500   0.562500         0.0039
      231           0.437500   0.562500   0.687500         0.0039
      232           0.437500   0.562500   0.812500         0.0039
      233           0.437500   0.562500   0.937500         0.0039
      234           0.437500   0.687500   0.062500         0.0039
      235           0.437500   0.687500   0.187500         0.0039
      236           0.437500   0.687500   0.312500         0.0039
      237           0.437500   0.687500   0.437500         0.0039
      238           0.437500   0.687500   0.562500         0.0039
      239           0.437500   0.687500   0.687500         0.0039
      240           0.437500   0.687500   0.812500         0.0039
      241           0.437500   0.687500   0.937500         0.0039
      242           0.437500   0.812500   0.062500         0.0039
      243           0.437500   0.812500   0.187500         0.0039
      244           0.437500   0.812500   0.312500         0.0039
      245           0.437500   0.812500   0.437500         0.0039
      246           0.437500   0.812500   0.562500         0.0039
      247           0.437500   0.812500   0.687500         0.0039
      248           0.437500   0.812500   0.812500         0.0039
      249           0.437500   0.812500   0.937500         0.0039
      250           0.437500   0.937500   0.062500         0.0039
      251           0.437500   0.937500   0.187500         0.0039
      252           0.437500   0.937500   0.312500         0.0039
      253           0.437500   0.937500   0.437500         0.0039
      254           0.437500   0.937500   0.562500         0.0039
      255           0.437500   0.937500   0.687500         0.0039
      256           0.437500   0.937500   0.812500         0.0039
      257           0.437500   0.937500   0.937500         0.0039
--------------------------------------------------------------------------------


********************************************************************************
*  General input information                                                   *
********************************************************************************

  Species output for all configurations : 

--------------------------------------------------------------------------------
  Species    Type    Atomic    Atomic    Charge       Radii (Angs)     Library
                     Number     Mass       (e)     Cova   Ionic  VDW   Symbol
--------------------------------------------------------------------------------
    Mg       Core       12      24.31   2.000000   1.100  0.000  1.640          
    O        Core        8      16.00  -2.000000   0.730  0.000  1.360          
--------------------------------------------------------------------------------


  Lattice summation method               =    Ewald          (3-D)
                                         =    Parry          (2-D)
                                         =    Saunders et al (1-D)
  Accuracy factor for lattice sums       =   12.000


  Time limit = Infinity

  Maximum range for interatomic potentials =    100000.000000 Angstroms

  General interatomic potentials :

--------------------------------------------------------------------------------
Atom  Types   Potential         A         B         C         D     Cutoffs(Ang)
  1     2                                                            Min    Max 
--------------------------------------------------------------------------------
Mg   c Mg   c Buckingham     0.00     0.500      0.00      0.00     0.000 10.000
O    c Mg   c Buckingham     822.     0.324      0.00      0.00     0.000 10.000
O    c O    c Buckingham    0.227E+04 0.149      27.9      0.00     0.000 10.000
--------------------------------------------------------------------------------

********************************************************************************
*  Output for configuration   1                                                *
********************************************************************************


  Components of energy : 

--------------------------------------------------------------------------------
  Interatomic potentials     =           6.76385689 eV
  Monopole - monopole (real) =          -5.06238942 eV
  Monopole - monopole (recip)=         -42.23394907 eV
  Monopole - monopole (total)=         -47.29633849 eV
--------------------------------------------------------------------------------
  Total lattice energy       =         -40.53248160 eV
--------------------------------------------------------------------------------
  Total lattice energy       =           -3910.7649 kJ/(mole unit cells)
--------------------------------------------------------------------------------


  Number of variables =        9

  Maximum number of calculations  =          1000
  Maximum Hessian update interval =            10
  Maximum step size               =   1.000000000
  Maximum parameter tolerance     =   0.000010000
  Maximum function  tolerance     =   0.000010000
  Maximum gradient  tolerance     =   0.001000000
  Maximum gradient  component     =   0.010000000

  Symmetry not applied to optimisation

  Cell parameters to be optimised using strains

  Newton-Raphson optimiser to be used

  BFGS hessian update to be used

  Start of bulk optimisation :

  Cycle:      0 Energy:       -40.532482  Gnorm:      0.148176  CPU:    0.004
  ** Hessian calculated **
  Cycle:      1 Energy:       -40.545091  Gnorm:      0.000760  CPU:    0.004


  **** Optimisation achieved ****


  Final energy =     -40.54509117 eV
  Final Gnorm  =       0.00002616

  Components of energy : 

--------------------------------------------------------------------------------
  Interatomic potentials     =           7.26543481 eV
  Monopole - monopole (real) =          -5.11742576 eV
  Monopole - monopole (recip)=         -42.69310022 eV
  Monopole - monopole (total)=         -47.81052598 eV
--------------------------------------------------------------------------------
  Total lattice energy       =         -40.54509117 eV
--------------------------------------------------------------------------------
  Total lattice energy       =           -3911.9815 kJ/(mole unit cells)
--------------------------------------------------------------------------------

  Final fractional coordinates of atoms :

--------------------------------------------------------------------------------
   No.  Atomic        x           y          z          Radius
        Label       (Frac)      (Frac)     (Frac)       (Angs) 
--------------------------------------------------------------------------------
     1  O     c     0.500000    0.500000    0.500000    0.000000
     2  Mg    c     0.000000    0.000000    0.000000    0.000000
--------------------------------------------------------------------------------

  Final Cartesian lattice vectors (Angstroms) :

        2.977419   -0.000000   -0.000000
        1.488709    2.578520   -0.000000
        1.488709    0.859507    2.431052


  Final cell parameters and derivatives :

--------------------------------------------------------------------------------
       a            2.977419 Angstrom     dE/de1(xx)     0.000136 eV/strain
       b            2.977419 Angstrom     dE/de2(yy)     0.000136 eV/strain
       c            2.977419 Angstrom     dE/de3(zz)     0.000136 eV/strain
       alpha       60.000000 Degrees      dE/de4(yz)     0.000000 eV/strain
       beta        60.000000 Degrees      dE/de5(xz)     0.000000 eV/strain
       gamma       60.000000 Degrees      dE/de6(xy)     0.000000 eV/strain
--------------------------------------------------------------------------------

  Primitive cell volume =            18.664000 Angs**3

  Density of cell =      3.586444 g/cm**3

  Non-primitive cell volume =            18.664000 Angs**3


  Final internal derivatives :

--------------------------------------------------------------------------------
   No.  Atomic          a             b             c           Radius
        Label          (eV)          (eV)          (eV)        (eV/Angs)
--------------------------------------------------------------------------------
      1 O     c       0.000000      0.000000      0.000000      0.000000
      2 Mg    c       0.000000      0.000000      0.000000      0.000000
--------------------------------------------------------------------------------
  Maximum abs         0.000000      0.000000      0.000000      0.000000
--------------------------------------------------------------------------------


  Born effective charge tensors : 

-------------------------------------------------------------------------------
  Atom             x           y             z
-------------------------------------------------------------------------------
   1 O     x      -2.0000      0.0000      0.0000
           y       0.0000     -2.0000      0.0000
           z       0.0000      0.0000     -2.0000
-------------------------------------------------------------------------------
   2 Mg    x       2.0000      0.0000      0.0000
           y       0.0000      2.0000      0.0000
           z       0.0000      0.0000      2.0000
-------------------------------------------------------------------------------




  Elastic Constant Matrix: (Units=GPa)

-------------------------------------------------------------------------------
  Indices      1         2         3         4         5         6    
-------------------------------------------------------------------------------
       1    397.6022  132.5333   98.6377   47.9356    0.0000    0.0000
       2    132.5333  397.6022   98.6377  -47.9356   -0.0000   -0.0000
       3     98.6377   98.6377  431.4978   -0.0000    0.0000   -0.0000
       4     47.9356  -47.9356   -0.0000   98.6389   -0.0000   -0.0000
       5      0.0000   -0.0000    0.0000   -0.0000   98.6389   47.9356
       6      0.0000   -0.0000   -0.0000   -0.0000   47.9356  132.5345
-------------------------------------------------------------------------------


  Elastic Compliance Matrix: (Units=1/GPa)

-------------------------------------------------------------------------------
  Indices      1         2         3         4         5         6    
-------------------------------------------------------------------------------
       1    0.003319 -0.001258 -0.000471 -0.002224 -0.000000 -0.000000
       2   -0.001258  0.003319 -0.000471  0.002224  0.000000  0.000000
       3   -0.000471 -0.000471  0.002533  0.000000 -0.000000  0.000000
       4   -0.002224  0.002224  0.000000  0.012300  0.000000  0.000000
       5   -0.000000  0.000000 -0.000000  0.000000  0.012300 -0.004449
       6   -0.000000  0.000000  0.000000  0.000000 -0.004449  0.009154
-------------------------------------------------------------------------------

  Mechanical properties :

-------------------------------------------------------------------------------
  Convention :                    Reuss         Voigt         Hill
-------------------------------------------------------------------------------
  Bulk  Modulus (GPa)     =     209.59109     209.59109     209.59109
  Shear Modulus (GPa)     =     102.21437     125.75536     113.98486
-------------------------------------------------------------------------------
  Velocity S-wave (km/s)  =       5.33856       5.92149       5.63756
  Velocity P-wave (km/s)  =       9.82039      10.25631      10.04072
-------------------------------------------------------------------------------
  Compressibility (1/GPa) =    0.00477120
-------------------------------------------------------------------------------
  Stress axis :                     x             y             z
-------------------------------------------------------------------------------
  Youngs Moduli (GPa)     =     301.25933     301.25933     394.79246
-------------------------------------------------------------------------------
  Poissons Ratio (x)      =                     0.37890       0.18606
  Poissons Ratio (y)      =       0.37890                     0.18606
  Poissons Ratio (z)      =       0.14198       0.14198
-------------------------------------------------------------------------------


  Piezoelectric Strain Matrix: (Units=C/m**2)

-------------------------------------------------------------------------------
  Indices      1         2         3         4         5         6    
-------------------------------------------------------------------------------
       x     0.00000   0.00000   0.00000  -0.00000  -0.00000  -0.00000
       y    -0.00000   0.00000  -0.00000  -0.00000  -0.00000   0.00000
       z    -0.00000  -0.00000   0.00000  -0.00000   0.00000  -0.00000
-------------------------------------------------------------------------------


  Piezoelectric Stress Matrix: (Units=10**-11 C/N)

-------------------------------------------------------------------------------
  Indices      1         2         3         4         5         6    
-------------------------------------------------------------------------------
       x     0.00000  -0.00000   0.00000  -0.00000   0.00000  -0.00000
       y     0.00000  -0.00000  -0.00000  -0.00000  -0.00000   0.00000
       z     0.00000  -0.00000   0.00000  -0.00000   0.00000  -0.00000
-------------------------------------------------------------------------------


  Static dielectric constant tensor : 

-------------------------------------------------------------------------------
              x         y         z
-------------------------------------------------------------------------------
       x    11.51873  -0.00000  -0.00000
       y    -0.00000  11.51873   0.00000
       z    -0.00000   0.00000  11.51873
--------------------------------------------------------------------------------

  Static refractive indices : 

-------------------------------------------------------------------------------
    1 =    3.39393      2 =    3.39393      3 =    3.39393
-------------------------------------------------------------------------------


  Phonon Calculation : 

  Number of k points for this configuration =      257

--------------------------------------------------------------------------------
  K point      1 =  10.000000 10.000000 10.000000  Weight =    0.004
--------------------------------------------------------------------------------

 Frequencies (cm-1) and Eigenvectors : 

 Frequency      -0.0504             -0.0504             -0.0504
 IR Intensity    0.0000              0.0000              0.0000
    in X         0.0000              0.0000              0.0000
    in Y         0.0000              0.0000              0.0000
    in Z         0.0000              0.0000              0.0000
 Raman Intsty    0.0000              0.0000              0.0000

                Real    Imaginary   Real    Imaginary   Real    Imaginary

     1 x       0.401253  0.000000 -0.184221 -0.000000  0.449424  0.000000
     1 y       0.317698  0.000000  0.540496  0.000000 -0.062094 -0.000000
     1 z       0.367407  0.000000 -0.266177 -0.000000 -0.437134 -0.000000
     2 x       0.494596 -0.000000 -0.227077  0.000000  0.553974 -0.000000
     2 y       0.391604 -0.000000  0.666231 -0.000000 -0.076539  0.000000
     2 z       0.452876  0.000000 -0.328098  0.000000 -0.538824  0.000000


 Frequency     322.3377            322.3377            322.3377
 IR Intensity    0.4145              0.4145              0.4145
    in X         0.0000              0.4145              0.0000
    in Y         0.2073              0.0000              0.2073
    in Z         0.2073              0.0000              0.2073
 Raman Intsty    0.0000              0.0000              0.0000

                Real    Imaginary   Real    Imaginary   Real    Imaginary

     1 x       0.000405 -0.000000 -0.776580  0.000000 -0.000429 -0.000000
     1 y      -0.549137 -0.000000 -0.000590  0.000000  0.549113  0.000000
     1 z      -0.549113 -0.000000  0.000017 -0.000000 -0.549137 -0.000000
     2 x      -0.000329 -0.000000  0.630019 -0.000000  0.000348 -0.000000
     2 y       0.445500 -0.000000  0.000478 -0.000000 -0.445481  0.000000
     2 z       0.445481  0.000000 -0.000014  0.000000  0.445500  0.000000




--------------------------------------------------------------------------------
  K point      2 =   0.062500  0.062500  0.062500  Weight =    0.004
--------------------------------------------------------------------------------

 Frequencies (cm-1) and Eigenvectors : 

 Frequency      44.7306             44.7307             94.0211
 IR Intensity    0.0000              0.0000              0.0000
    in X         0.0000              0.0000              0.0000
    in Y         0.0000              0.0000              0.0000
    in Z         0.0000              0.0000              0.0000
 Raman Intsty    0.0000              0.0000              0.0000

                Real    Imaginary   Real    Imaginary   Real    Imaginary

     1 x       0.312986  0.000000  0.182021  0.000000 -0.513630 -0.000000
     1 y      -0.543427 -0.000000  0.102806 -0.000000 -0.296543 -0.000000
     1 z       0.001864  0.000000 -0.591249  0.000000 -0.209688 -0.000000
     2 x       0.388751  0.000000  0.226083  0.000000 -0.634707  0.000000
     2 y      -0.674975 -0.000000  0.127693 -0.000000 -0.366447  0.000000
     2 z       0.002316  0.000000 -0.734374  0.000000 -0.259117  0.000000


 Frequency     322.0487            322.0487           1087.7036
 IR Intensity    0.4145              0.4145              0.4145
    in X         0.0047              0.1335              0.2764
    in Y         0.1977              0.1247              0.0921
    in Z         0.2121              0.1563              0.0461
 Raman Intsty    0.0000              0.0000              0.0000

                Real    Imaginary   Real    Imaginary   Real    Imaginary

     1 x      -0.083086 -0.000000 -0.441971 -0.000000 -0.634706 -0.000000
     1 y       0.537910  0.000000  0.427258  0.000000 -0.366448 -0.000000
     1 z      -0.557202  0.000000  0.478369 -0.000000 -0.259118 -0.000000
     2 x       0.066893  0.000000  0.355833  0.000000  0.513629 -0.000000
     2 y      -0.433075 -0.000000 -0.343988 -0.000000  0.296544 -0.000000
     2 z       0.448606  0.000000 -0.385137  0.000000  0.209688  0.000000




--------------------------------------------------------------------------------
  K point      3 =   0.062500  0.062500  0.187500  Weight =    0.004
--------------------------------------------------------------------------------

 Frequencies (cm-1) and Eigenvectors : 

 Frequency      94.8434            139.5961            224.7280
 IR Intensity    0.0002              0.0007              0.0002
    in X         0.0000              0.0004              0.0001
    in Y         0.0001              0.0001              0.0000
    in Z         0.0000              0.0001              0.0001
 Raman Intsty    0.0000              0.0000              0.0000

                Real    Imaginary   Real    Imaginary   Real    Imaginary

     1 x       0.307467 -0.000000  0.501910 -0.000000 -0.149655 -0.000000
     1 y      -0.532550  0.000000  0.289778 -0.000000 -0.086403 -0.000000
     1 z       0.000000 -0.000000 -0.148607  0.000000 -0.597623 -0.000000
     2 x       0.394289 -0.000000  0.670442 -0.000000 -0.163006  0.000000
     2 y      -0.682928  0.000000  0.387080 -0.000000 -0.094112  0.000000
     2 z       0.000000  0.000000 -0.206659  0.000000 -0.759971  0.000000


 Frequency     315.9936            330.5091           1053.2328
 IR Intensity    0.4144              0.4137              0.4145
    in X         0.1036              0.2673              0.0431
    in Y         0.3108              0.0891              0.0144
    in Z         0.0000              0.0573              0.3571
 Raman Intsty    0.0000              0.0000              0.0000

                Real    Imaginary   Real    Imaginary   Real    Imaginary

     1 x       0.394289 -0.000000  0.642180 -0.000000 -0.251585 -0.000000
     1 y      -0.682928  0.000000  0.370763 -0.000000 -0.145253 -0.000000
     1 z      -0.000000  0.000000 -0.307339  0.000000 -0.725469 -0.000000
     2 x      -0.307468  0.000000 -0.483017  0.000000  0.201572 -0.000000
     2 y       0.532549 -0.000000 -0.278870  0.000000  0.116377  0.000000
     2 z       0.000000  0.000000  0.211208  0.000000  0.578901  0.000000




--------------------------------------------------------------------------------
  K point      4 =   0.062500  0.062500  0.312500  Weight =    0.004
--------------------------------------------------------------------------------

 Frequencies (cm-1) and Eigenvectors : 

 Frequency     168.9295            206.8759            310.0501
 IR Intensity    0.0028              0.0064              0.4117
    in X         0.0007              0.0046              0.1029
    in Y         0.0021              0.0015              0.3088
    in Z         0.0000              0.0002              0.0000
 Raman Intsty    0.0000              0.0000              0.0000

                Real    Imaginary   Real    Imaginary   Real    Imaginary

     1 x       0.281809 -0.000000 -0.458983  0.000000 -0.413018  0.000000
     1 y      -0.488108  0.000000 -0.264994  0.000000  0.715368 -0.000000
     1 z       0.000000 -0.000000  0.010505 -0.000000 -0.000000  0.000000
     2 x       0.413018 -0.000000 -0.732980  0.000000  0.281809 -0.000000
     2 y      -0.715368  0.000000 -0.423187  0.000000 -0.488108  0.000000
     2 z       0.000000  0.000000  0.051525  0.000000  0.000000  0.000000


 Frequency     329.8149            400.9956            974.3148
 IR Intensity    0.4044              0.0043              0.4140
    in X         0.2905              0.0031              0.0127
    in Y         0.0968              0.0010              0.0042
    in Z         0.0171              0.0001              0.3971
 Raman Intsty    0.0000              0.0000              0.0000

                Real    Imaginary   Real    Imaginary   Real    Imaginary

     1 x       0.719836  0.000000  0.048340  0.000000 -0.137239 -0.000000
     1 y       0.415597  0.000000  0.027909  0.000000 -0.079235 -0.000000
     1 z      -0.101142 -0.000000 -0.614724 -0.000000 -0.782160 -0.000000
     2 x      -0.441416 -0.000000 -0.078083 -0.000000  0.108603 -0.000000
     2 y      -0.254851 -0.000000 -0.045081 -0.000000  0.062702 -0.000000
     2 z       0.197709  0.000000 -0.781581  0.000000  0.589396  0.000000




--------------------------------------------------------------------------------
  K point      5 =   0.062500  0.062500  0.437500  Weight =    0.004
--------------------------------------------------------------------------------

 Frequencies (cm-1) and Eigenvectors : 

 Frequency     226.7123            249.6266            304.1792
 IR Intensity    0.0288              0.0431              0.3857
    in X         0.0072              0.0318              0.0964
    in Y         0.0216              0.0106              0.2893
    in Z         0.0000              0.0006              0.0000
 Raman Intsty    0.0000              0.0000              0.0000

                Real    Imaginary   Real    Imaginary   Real    Imaginary

     1 x      -0.201503  0.000000 -0.301093  0.000000  0.457599  0.000000
     1 y       0.349013 -0.000000 -0.173836  0.000000 -0.792584 -0.000000
     1 z      -0.000000  0.000000 -0.045961  0.000000 -0.000000 -0.000000
     2 x      -0.457599  0.000000 -0.811011  0.000000 -0.201503 -0.000000
     2 y       0.792584 -0.000000 -0.468237  0.000000  0.349013  0.000000
     2 z      -0.000000  0.000000  0.005236  0.000000  0.000000  0.000000


 Frequency     321.5451            568.8625            862.3647
 IR Intensity    0.3706              0.0096              0.4059
    in X         0.2733              0.0013              0.0045
    in Y         0.0911              0.0004              0.0015
    in Z         0.0062              0.0079              0.3999
 Raman Intsty    0.0000              0.0000              0.0000

                Real    Imaginary   Real    Imaginary   Real    Imaginary

     1 x       0.805458  0.000000  0.066235  0.000000 -0.078694 -0.000000
     1 y       0.465032  0.000000  0.038241  0.000000 -0.045434 -0.000000
     1 z      -0.058227 -0.000000 -0.515271 -0.000000 -0.853811 -0.000000
     2 x      -0.295968 -0.000000 -0.006823 -0.000000  0.067958 -0.000000
     2 y      -0.170877 -0.000000 -0.003939 -0.000000  0.039236 -0.000000
     2 z       0.121639  0.000000 -0.853572  0.000000  0.506549  0.000000




--------------------------------------------------------------------------------
  K point      6 =   0.062500  0.062500  0.562500  Weight =    0.004
--------------------------------------------------------------------------------

 Frequencies (cm-1) and Eigenvectors : 

 Frequency     250.4325            256.9201            304.6203
 IR Intensity    0.1968              0.2134              0.2178
    in X         0.0492              0.1593              0.0544
    in Y         0.1476              0.0531              0.1633
    in Z         0.0000              0.0010              0.0000
 Raman Intsty    0.0000              0.0000              0.0000

                Real    Imaginary   Real    Imaginary   Real    Imaginary

     1 x       0.039220  0.000000 -0.101988  0.000000  0.498460  0.000000
     1 y      -0.067930 -0.000000 -0.058883  0.000000 -0.863357 -0.000000
     1 z      -0.000000 -0.000000  0.062345 -0.000000  0.000000  0.000000
     2 x      -0.498460 -0.000000  0.858302 -0.000000  0.039220  0.000000
     2 y       0.863357  0.000000  0.495541 -0.000000 -0.067930 -0.000000
     2 z       0.000000  0.000000 -0.001338  0.000000  0.000000  0.000000


 Frequency     312.5288            650.1496            795.1515
 IR Intensity    0.2005              0.2415              0.1736
    in X         0.1494              0.0021              0.0001
    in Y         0.0498              0.0007              0.0000
    in Z         0.0013              0.2388              0.1735
 Raman Intsty    0.0000              0.0000              0.0000

                Real    Imaginary   Real    Imaginary   Real    Imaginary

     1 x      -0.854849 -0.000000 -0.090416 -0.000000 -0.025618 -0.000000
     1 y      -0.493548 -0.000000 -0.052202 -0.000000 -0.014791 -0.000000
     1 z      -0.017316 -0.000000 -0.184481 -0.000000  0.980704  0.000000
     2 x      -0.100762  0.000000  0.000449 -0.000000 -0.056258  0.000000
     2 y      -0.058175  0.000000  0.000259 -0.000000 -0.032481  0.000000
     2 z      -0.108660  0.000000  0.977275  0.000000  0.182002  0.000000




--------------------------------------------------------------------------------
  K point      7 =   0.062500  0.062500  0.687500  Weight =    0.004
--------------------------------------------------------------------------------

 Frequencies (cm-1) and Eigenvectors : 

 Frequency     220.7454            227.3825            314.1792
 IR Intensity    0.3508              0.3447              0.0632
    in X         0.2631              0.0862              0.0473
    in Y         0.0877              0.2585              0.0158
    in Z         0.0000              0.0000              0.0002
 Raman Intsty    0.0000              0.0000              0.0000

                Real    Imaginary   Real    Imaginary   Real    Imaginary

     1 x       0.405266 -0.000000 -0.224775  0.000000 -0.757517 -0.000000
     1 y       0.233981 -0.000000  0.389321 -0.000000 -0.437353 -0.000000
     1 z      -0.024776  0.000000  0.000000  0.000000 -0.081618 -0.000000
     2 x      -0.764958  0.000000  0.446628 -0.000000 -0.397587 -0.000000
     2 y      -0.441649  0.000000 -0.773582  0.000000 -0.229547 -0.000000
     2 z      -0.013547  0.000000  0.000000  0.000000 -0.132143  0.000000


 Frequency     317.6912            515.2111            902.2039
 IR Intensity    0.0698              0.3800              0.0350
    in X         0.0175              0.0002              0.0003
    in Y         0.0524              0.0001              0.0001
    in Z         0.0000              0.3797              0.0346
 Raman Intsty    0.0000              0.0000              0.0000

                Real    Imaginary   Real    Imaginary   Real    Imaginary

     1 x       0.446628 -0.000000 -0.049640 -0.000000 -0.097276 -0.000000
     1 y      -0.773582  0.000000 -0.028660 -0.000000 -0.056162 -0.000000
     1 z       0.000000  0.000000 -0.564988 -0.000000  0.820678  0.000000
     2 x       0.224775 -0.000000 -0.023501 -0.000000 -0.078813  0.000000
     2 y      -0.389321  0.000000 -0.013568 -0.000000 -0.045503  0.000000
     2 z       0.000000  0.000000  0.822658  0.000000  0.552800  0.000000




--------------------------------------------------------------------------------
  K point      8 =   0.062500  0.062500  0.812500  Weight =    0.004
--------------------------------------------------------------------------------

 Frequencies (cm-1) and Eigenvectors : 

 Frequency     158.2023            174.6092            317.6383
 IR Intensity    0.3852              0.3819              0.0423
    in X         0.2873              0.0955              0.0227
    in Y         0.0958              0.2864              0.0076
    in Z         0.0021              0.0000              0.0120
 Raman Intsty    0.0000              0.0000              0.0000

                Real    Imaginary   Real    Imaginary   Real    Imaginary

     1 x      -0.502221  0.000000  0.284223 -0.000000 -0.675995 -0.000000
     1 y      -0.289957  0.000000 -0.492288  0.000000 -0.390286 -0.000000
     1 z      -0.036195  0.000000  0.000000 -0.000000 -0.043505 -0.000000
     2 x       0.702393 -0.000000 -0.411361  0.000000 -0.461644 -0.000000
     2 y       0.405527 -0.000000  0.712497 -0.000000 -0.266531 -0.000000
     2 z       0.067690  0.000000 -0.000000  0.000000 -0.323514  0.000000


 Frequency     326.0486            342.8530           1004.9259
 IR Intensity    0.0327              0.3802              0.0215
    in X         0.0082              0.0000              0.0008
    in Y         0.0245              0.0000              0.0003
    in Z         0.0000              0.3801              0.0204
 Raman Intsty    0.0000              0.0000              0.0000

                Real    Imaginary   Real    Imaginary   Real    Imaginary

     1 x      -0.411361 -0.000000 -0.120457 -0.000000 -0.162159 -0.000000
     1 y       0.712497  0.000000 -0.069546 -0.000000 -0.093623 -0.000000
     1 z      -0.000000 -0.000000 -0.638362 -0.000000  0.767653  0.000000
     2 x      -0.284223 -0.000000 -0.163784 -0.000000 -0.129244  0.000000
     2 y       0.492288  0.000000 -0.094561 -0.000000 -0.074619  0.000000
     2 z      -0.000000  0.000000  0.733062  0.000000  0.594455  0.000000




--------------------------------------------------------------------------------
  K point      9 =   0.062500  0.062500  0.937500  Weight =    0.004
--------------------------------------------------------------------------------

 Frequencies (cm-1) and Eigenvectors : 

 Frequency      90.4958            103.3940            164.7109
 IR Intensity    0.3943              0.3933              0.3956
    in X         0.2741              0.0983              0.0223
    in Y         0.0914              0.2950              0.0074
    in Z         0.0288              0.0000              0.3659
 Raman Intsty    0.0000              0.0000              0.0000

                Real    Imaginary   Real    Imaginary   Real    Imaginary

     1 x       0.515944 -0.000000 -0.306882  0.000000 -0.155501 -0.000000
     1 y       0.297880 -0.000000  0.531537 -0.000000 -0.089778 -0.000000
     1 z       0.164970 -0.000000 -0.000000  0.000000  0.598045  0.000000
     2 x      -0.654735  0.000000  0.394744 -0.000000  0.176314 -0.000000
     2 y      -0.378011  0.000000 -0.683717  0.000000  0.101795 -0.000000
     2 z      -0.215136  0.000000  0.000000  0.000000 -0.754091  0.000000


 Frequency     324.0660            326.4967           1068.9258
 IR Intensity    0.0209              0.0213              0.0183
    in X         0.0113              0.0053              0.0032
    in Y         0.0038              0.0159              0.0011
    in Z         0.0059              0.0000              0.0139
 Raman Intsty    0.0000              0.0000              0.0000

                Real    Imaginary   Real    Imaginary   Real    Imaginary

     1 x      -0.592384  0.000000  0.394745 -0.000000 -0.329699 -0.000000
     1 y      -0.342014  0.000000 -0.683717  0.000000 -0.190352 -0.000000
     1 z      -0.391533  0.000000  0.000000 -0.000000  0.679580  0.000000
     2 x      -0.468428  0.000000  0.306883 -0.000000 -0.266102  0.000000
     2 y      -0.270448  0.000000 -0.531536  0.000000 -0.153634  0.000000
     2 z      -0.293669  0.000000  0.000000  0.000000  0.546646  0.000000




--------------------------------------------------------------------------------
  K point     10 =   0.062500  0.187500  0.062500  Weight =    0.004
--------------------------------------------------------------------------------

 Frequencies (cm-1) and Eigenvectors : 

 Frequency      94.8434            139.5961            224.7280
 IR Intensity    0.0002              0.0007              0.0002
    in X         0.0000              0.0004              0.0001
    in Y         0.0000              0.0000              0.0001
    in Z         0.0001              0.0002              0.0001
 Raman Intsty    0.0000              0.0000              0.0000

                Real    Imaginary   Real    Imaginary   Real    Imaginary

     1 x      -0.307468  0.000000  0.501910 -0.000000  0.149655  0.000000
     1 y       0.177516 -0.000000 -0.043515  0.000000  0.592246  0.000000
     1 z       0.502092 -0.000000  0.322741 -0.000000 -0.117746 -0.000000
     2 x      -0.394289  0.000000  0.670442 -0.000000  0.163006 -0.000000
     2 y       0.227643 -0.000000 -0.065813 -0.000000  0.747878 -0.000000
     2 z       0.643871  0.000000  0.433829  0.000000 -0.164595  0.000000


 Frequency     315.9936            330.5091           1053.2328
 IR Intensity    0.4144              0.4137              0.4145
    in X         0.1036              0.2673              0.0431
    in Y         0.0345              0.0159              0.3640
    in Z         0.2763              0.1305              0.0074
 Raman Intsty    0.0000              0.0000              0.0000

                Real    Imaginary   Real    Imaginary   Real    Imaginary

     1 x       0.394289 -0.000000 -0.642180  0.000000  0.251585  0.000000
     1 y      -0.227643  0.000000  0.166175 -0.000000  0.732396  0.000000
     1 z      -0.643871  0.000000 -0.452005  0.000000 -0.104877 -0.000000
     2 x      -0.307467  0.000000  0.483017 -0.000000 -0.201572  0.000000
     2 y       0.177516  0.000000 -0.106173 -0.000000 -0.584586 -0.000000
     2 z       0.502093  0.000000  0.333324  0.000000  0.083245  0.000000




--------------------------------------------------------------------------------
  K point     11 =   0.062500  0.187500  0.187500  Weight =    0.004
--------------------------------------------------------------------------------

 Frequencies (cm-1) and Eigenvectors : 

 Frequency     155.3322            163.8249            236.3666
 IR Intensity    0.0011              0.0014              0.0010
    in X         0.0010              0.0000              0.0010
    in Y         0.0001              0.0005              0.0000
    in Z         0.0000              0.0010              0.0000
 Raman Intsty    0.0000              0.0000              0.0000

                Real    Imaginary   Real    Imaginary   Real    Imaginary

     1 x      -0.500330  0.000000 -0.000001  0.000000 -0.286436  0.000000
     1 y       0.257078 -0.000000  0.336669 -0.000000 -0.443327 -0.000000
     1 z       0.181783 -0.000000 -0.476121  0.000000 -0.313480 -0.000000
     2 x      -0.693579 -0.000000 -0.000002  0.000000 -0.432017 -0.000000
     2 y       0.336139 -0.000000  0.469029 -0.000000 -0.539449  0.000000
     2 z       0.237688  0.000000 -0.663306  0.000000 -0.381448  0.000000


 Frequency     333.1245            334.8688           1031.8381
 IR Intensity    0.4125              0.4131              0.4145
    in X         0.3804              0.0000              0.0321
    in Y         0.0214              0.1377              0.2549
    in Z         0.0107              0.2754              0.1275
 Raman Intsty    0.0000              0.0000              0.0000

                Real    Imaginary   Real    Imaginary   Real    Imaginary

     1 x      -0.787295 -0.000000  0.000003 -0.000000 -0.218610 -0.000000
     1 y       0.168130  0.000000 -0.469029  0.000000 -0.613001 -0.000000
     1 z       0.118889  0.000000  0.663306 -0.000000 -0.433457 -0.000000
     2 x       0.550069  0.000000 -0.000002  0.000000  0.172438  0.000000
     2 y      -0.153161  0.000000  0.336669 -0.000000  0.489094 -0.000000
     2 z      -0.108304  0.000000 -0.476120  0.000000  0.345842  0.000000




--------------------------------------------------------------------------------
  K point     12 =   0.062500  0.187500  0.312500  Weight =    0.004
--------------------------------------------------------------------------------

 Frequencies (cm-1) and Eigenvectors : 

 Frequency     196.1635            246.6657            327.3661
 IR Intensity    0.0044              0.0143              0.3385
    in X         0.0018              0.0086              0.1079
    in Y         0.0022              0.0029              0.1883
    in Z         0.0004              0.0028              0.0423
 Raman Intsty    0.0000              0.0000              0.0000

                Real    Imaginary   Real    Imaginary   Real    Imaginary

     1 x      -0.318678  0.000000  0.376247 -0.000000  0.381211  0.000000
     1 y       0.442834 -0.000000  0.267590 -0.000000 -0.646153 -0.000000
     1 z      -0.056339  0.000000 -0.122401  0.000000  0.008229  0.000000
     2 x      -0.496999  0.000000  0.692466 -0.000000 -0.340034 -0.000000
     2 y       0.662158 -0.000000  0.461702 -0.000000  0.273233  0.000000
     2 z      -0.117078  0.000000 -0.281379  0.000000 -0.496808  0.000000


 Frequency     342.8395            356.1693            966.9605
 IR Intensity    0.1590              0.3132              0.4143
    in X         0.1516              0.1302              0.0144
    in Y         0.0022              0.1064              0.1125
    in Z         0.0051              0.0765              0.2874
 Raman Intsty    0.0000              0.0000              0.0000

                Real    Imaginary   Real    Imaginary   Real    Imaginary

     1 x      -0.615166 -0.000000 -0.459724 -0.000000 -0.147596 -0.000000
     1 y      -0.089316  0.000000 -0.372702 -0.000000 -0.409752 -0.000000
     1 z      -0.363190  0.000000  0.643600  0.000000 -0.660037 -0.000000
     2 x       0.201702  0.000000  0.322897  0.000000  0.113637 -0.000000
     2 y      -0.226234 -0.000000  0.344793  0.000000  0.321960 -0.000000
     2 z      -0.624356  0.000000  0.111269  0.000000  0.508035  0.000000




--------------------------------------------------------------------------------
  K point     13 =   0.062500  0.187500  0.437500  Weight =    0.004
--------------------------------------------------------------------------------

 Frequencies (cm-1) and Eigenvectors : 

 Frequency     245.6817            291.0161            330.4252
 IR Intensity    0.0261              0.0616              0.3846
    in X         0.0152              0.0380              0.2204
    in Y         0.0104              0.0181              0.1556
    in Z         0.0005              0.0055              0.0087
 Raman Intsty    0.0000              0.0000              0.0000

                Real    Imaginary   Real    Imaginary   Real    Imaginary

     1 x      -0.285645 -0.000000  0.163162 -0.000000  0.717278  0.000000
     1 y       0.305056  0.000000  0.261274 -0.000000 -0.547025 -0.000000
     1 z       0.018323  0.000000  0.082227  0.000000  0.084153  0.000000
     2 x      -0.656227 -0.000000  0.681475 -0.000000 -0.273101 -0.000000
     2 y       0.627149  0.000000  0.653647 -0.000000  0.298028 -0.000000
     2 z      -0.032580  0.000000 -0.081792  0.000000 -0.125653  0.000000


 Frequency     360.2698            494.2741            865.0346
 IR Intensity    0.3465              0.0130              0.4119
    in X         0.1331              0.0019              0.0060
    in Y         0.1673              0.0110              0.0522
    in Z         0.0461              0.0001              0.3537
 Raman Intsty    0.0000              0.0000              0.0000

                Real    Imaginary   Real    Imaginary   Real    Imaginary

     1 x      -0.602448 -0.000000  0.073503  0.000000 -0.094607 -0.000000
     1 y      -0.663546 -0.000000  0.145993  0.000000 -0.278986 -0.000000
     1 z       0.159884  0.000000 -0.609597 -0.000000 -0.767235 -0.000000
     2 x       0.156776  0.000000 -0.017595 -0.000000  0.074060 -0.000000
     2 y       0.190483  0.000000 -0.078215 -0.000000  0.219560 -0.000000
     2 z      -0.332171  0.000000 -0.771522  0.000000  0.520457  0.000000




--------------------------------------------------------------------------------
  K point     14 =   0.062500  0.187500  0.562500  Weight =    0.004
--------------------------------------------------------------------------------

 Frequencies (cm-1) and Eigenvectors : 

 Frequency     267.9396            309.7201            326.7482
 IR Intensity    0.1430              0.1433              0.2522
    in X         0.1297              0.0772              0.1800
    in Y         0.0133              0.0601              0.0710
    in Z         0.0000              0.0060              0.0012
 Raman Intsty    0.0000              0.0000              0.0000

                Real    Imaginary   Real    Imaginary   Real    Imaginary

     1 x      -0.033250 -0.000000  0.263959  0.000000  0.903425 -0.000000
     1 y       0.064135  0.000000 -0.205237 -0.000000 -0.284906  0.000000
     1 z       0.003685  0.000000 -0.155183 -0.000000  0.068252 -0.000000
     2 x      -0.928894 -0.000000 -0.359438 -0.000000  0.067763 -0.000000
     2 y       0.363205  0.000000 -0.857278 -0.000000  0.305609 -0.000000
     2 z      -0.002534  0.000000  0.000215  0.000000 -0.002336  0.000000


 Frequency     370.2138            626.1457            753.9161
 IR Intensity    0.2841              0.0920              0.3290
    in X         0.0247              0.0020              0.0010
    in Y         0.2364              0.0205              0.0134
    in Z         0.0231              0.0695              0.3147
 Raman Intsty    0.0000              0.0000              0.0000

                Real    Imaginary   Real    Imaginary   Real    Imaginary

     1 x       0.319302  0.000000 -0.103774 -0.000000 -0.017907 -0.000000
     1 y       0.884792  0.000000 -0.284064 -0.000000 -0.095094 -0.000000
     1 z      -0.045349 -0.000000  0.224155  0.000000 -0.958616 -0.000000
     2 x       0.006418 -0.000000 -0.016507  0.000000  0.055277 -0.000000
     2 y      -0.107912  0.000000  0.002631  0.000000  0.167654 -0.000000
     2 z       0.318505  0.000000  0.926290  0.000000  0.201318  0.000000




--------------------------------------------------------------------------------
  K point     15 =   0.062500  0.187500  0.687500  Weight =    0.004
--------------------------------------------------------------------------------

 Frequencies (cm-1) and Eigenvectors : 

 Frequency     243.3944            314.1899            319.4360
 IR Intensity    0.3132              0.1528              0.1489
    in X         0.3091              0.0621              0.0399
    in Y         0.0041              0.0894              0.1084
    in Z         0.0000              0.0012              0.0007
 Raman Intsty    0.0000              0.0000              0.0000

                Real    Imaginary   Real    Imaginary   Real    Imaginary

     1 x       0.362683  0.000000 -0.616240 -0.000000 -0.681106 -0.000000
     1 y      -0.030630  0.000000  0.024473  0.000000  0.173055  0.000000
     1 z      -0.014386 -0.000000  0.093446  0.000000 -0.132271 -0.000000
     2 x      -0.923523 -0.000000 -0.145266 -0.000000 -0.347414 -0.000000
     2 y       0.119556  0.000000  0.767473  0.000000 -0.598401  0.000000
     2 z      -0.011273  0.000000  0.028292  0.000000 -0.099347  0.000000


 Frequency     375.1788            546.0734            821.8880
 IR Intensity    0.2098              0.3744              0.0446
    in X         0.0028              0.0005              0.0002
    in Y         0.1984              0.0128              0.0014
    in Z         0.0086              0.3611              0.0429
 Raman Intsty    0.0000              0.0000              0.0000

                Real    Imaginary   Real    Imaginary   Real    Imaginary

     1 x      -0.120172  0.000000 -0.056249 -0.000000 -0.084844 -0.000000
     1 y      -0.929035 -0.000000 -0.228751 -0.000000 -0.230393 -0.000000
     1 z      -0.086485 -0.000000 -0.554369 -0.000000  0.811641  0.000000
     2 x      -0.017051  0.000000 -0.015974 -0.000000 -0.068989  0.000000
     2 y      -0.047203 -0.000000 -0.002815 -0.000000 -0.190714  0.000000
     2 z      -0.335341  0.000000  0.798074  0.000000  0.489722  0.000000




--------------------------------------------------------------------------------
  K point     16 =   0.062500  0.187500  0.812500  Weight =    0.004
--------------------------------------------------------------------------------

 Frequencies (cm-1) and Eigenvectors : 

 Frequency     190.5513            289.9347            313.4331
 IR Intensity    0.3730              0.2986              0.0419
    in X         0.3715              0.0008              0.0412
    in Y         0.0010              0.2805              0.0004
    in Z         0.0005              0.0173              0.0003
 Raman Intsty    0.0000              0.0000              0.0000

                Real    Imaginary   Real    Imaginary   Real    Imaginary

     1 x       0.536708 -0.000000  0.039727  0.000000 -0.833366 -0.000000
     1 y      -0.023952  0.000000  0.331269 -0.000000  0.074050  0.000000
     1 z       0.013309 -0.000000  0.030474 -0.000000 -0.069700 -0.000000
     2 x      -0.841119  0.000000 -0.020849  0.000000 -0.526930 -0.000000
     2 y       0.047228  0.000000 -0.897226  0.000000  0.040583  0.000000
     2 z      -0.038497  0.000000 -0.286890  0.000000 -0.125923  0.000000


 Frequency     364.0460            394.4569            935.9358
 IR Intensity    0.1381              0.3682              0.0239
    in X         0.0003              0.0002              0.0005
    in Y         0.1266              0.0013              0.0048
    in Z         0.0112              0.3666              0.0186
 Raman Intsty    0.0000              0.0000              0.0000

                Real    Imaginary   Real    Imaginary   Real    Imaginary

     1 x       0.014608 -0.000000  0.024160  0.000000 -0.122760 -0.000000
     1 y       0.850761  0.000000  0.158649  0.000000 -0.367750 -0.000000
     1 z       0.166860  0.000000  0.692696  0.000000  0.697399  0.000000
     2 x      -0.024002 -0.000000  0.067153  0.000000 -0.096658  0.000000
     2 y       0.171654  0.000000  0.285897  0.000000 -0.282678  0.000000
     2 z       0.467021  0.000000 -0.638884  0.000000  0.523521  0.000000




--------------------------------------------------------------------------------
  K point     17 =   0.062500  0.187500  0.937500  Weight =    0.004
--------------------------------------------------------------------------------

 Frequencies (cm-1) and Eigenvectors : 

 Frequency     139.3182            193.2267            286.9388
 IR Intensity    0.3887              0.3790              0.3836
    in X         0.3855              0.0000              0.0056
    in Y         0.0020              0.1289              0.2414
    in Z         0.0012              0.2501              0.1366
 Raman Intsty    0.0000              0.0000              0.0000

                Real    Imaginary   Real    Imaginary   Real    Imaginary

     1 x      -0.592536  0.000000  0.004790  0.000000 -0.143484 -0.000000
     1 y       0.039464 -0.000000 -0.319031  0.000000 -0.440878 -0.000000
     1 z      -0.030637  0.000000 -0.457986  0.000000  0.384331  0.000000
     2 x       0.800218 -0.000000 -0.001395  0.000000  0.007502 -0.000000
     2 y      -0.060830  0.000000  0.491819  0.000000  0.667744  0.000000
     2 z       0.048530  0.000000  0.668250  0.000000 -0.437482  0.000000


 Frequency     318.7564            339.8867           1017.8700
 IR Intensity    0.0331              0.0393              0.0200
    in X         0.0224              0.0000              0.0010
    in Y         0.0060              0.0265              0.0098
    in Z         0.0046              0.0128              0.0092
 Raman Intsty    0.0000              0.0000              0.0000

                Real    Imaginary   Real    Imaginary   Real    Imaginary

     1 x      -0.771602  0.000000  0.003075  0.000000 -0.181414 -0.000000
     1 y       0.175632 -0.000000 -0.611015  0.000000 -0.545988 -0.000000
     1 z      -0.178725  0.000000 -0.569166  0.000000  0.534516  0.000000
     2 x      -0.581751  0.000000  0.009480 -0.000000 -0.145148  0.000000
     2 y       0.025014  0.000000 -0.352154 -0.000000 -0.428828 -0.000000
     2 z      -0.052734  0.000000 -0.422609  0.000000  0.422276  0.000000




--------------------------------------------------------------------------------
  K point     18 =   0.062500  0.312500  0.062500  Weight =    0.004
--------------------------------------------------------------------------------

 Frequencies (cm-1) and Eigenvectors : 

 Frequency     168.9295            206.8759            310.0501
 IR Intensity    0.0028              0.0064              0.4117
    in X         0.0007              0.0046              0.1029
    in Y         0.0002              0.0000              0.0343
    in Z         0.0019              0.0018              0.2745
 Raman Intsty    0.0000              0.0000              0.0000

                Real    Imaginary   Real    Imaginary   Real    Imaginary

     1 x       0.281809 -0.000000  0.458983 -0.000000  0.413018 -0.000000
     1 y      -0.162703  0.000000  0.078427  0.000000 -0.238456  0.000000
     1 z      -0.460192  0.000000  0.253341 -0.000000 -0.674455  0.000000
     2 x       0.413018 -0.000000  0.732981 -0.000000 -0.281809  0.000000
     2 y      -0.238456  0.000000  0.092484 -0.000000  0.162702 -0.000000
     2 z      -0.674455  0.000000  0.416159  0.000000  0.460193  0.000000


 Frequency     329.8149            400.9956            974.3148
 IR Intensity    0.4044              0.0043              0.4140
    in X         0.2905              0.0031              0.0127
    in Y         0.0004              0.0004              0.3792
    in Z         0.1135              0.0007              0.0221
 Raman Intsty    0.0000              0.0000              0.0000

                Real    Imaginary   Real    Imaginary   Real    Imaginary

     1 x      -0.719836  0.000000 -0.048340 -0.000000 -0.137239 -0.000000
     1 y      -0.043175  0.000000  0.570265  0.000000 -0.763839 -0.000000
     1 z      -0.425543  0.000000 -0.231221 -0.000000  0.186017  0.000000
     2 x       0.441416  0.000000  0.078083  0.000000  0.108603 -0.000000
     2 y      -0.101452  0.000000  0.751909  0.000000  0.576588 -0.000000
     2 z       0.306179  0.000000 -0.218024  0.000000 -0.137349  0.000000




--------------------------------------------------------------------------------
  K point     19 =   0.062500  0.312500  0.187500  Weight =    0.004
--------------------------------------------------------------------------------

 Frequencies (cm-1) and Eigenvectors : 

 Frequency     196.1635            246.6657            327.3661
 IR Intensity    0.0044              0.0143              0.3385
    in X         0.0018              0.0086              0.1079
    in Y         0.0000              0.0010              0.0024
    in Z         0.0026              0.0046              0.2281
 Raman Intsty    0.0000              0.0000              0.0000

                Real    Imaginary   Real    Imaginary   Real    Imaginary

     1 x      -0.318678  0.000000 -0.376247  0.000000  0.381210  0.000000
     1 y       0.094494  0.000000  0.026204 -0.000000 -0.207626  0.000000
     1 z       0.436287 -0.000000 -0.293086  0.000000 -0.611942  0.000000
     2 x      -0.496999 -0.000000 -0.692466 -0.000000 -0.340034  0.000000
     2 y       0.110337 -0.000000  0.111386  0.000000 -0.377317  0.000000
     2 z       0.663315  0.000000 -0.529090  0.000000  0.423209  0.000000


 Frequency     342.8395            356.1693            966.9605
 IR Intensity    0.1590              0.3132              0.4143
    in X         0.1516              0.1302              0.0144
    in Y         0.0069              0.0231              0.3810
    in Z         0.0004              0.1598              0.0189
 Raman Intsty    0.0000              0.0000              0.0000

                Real    Imaginary   Real    Imaginary   Real    Imaginary

     1 x      -0.615167  0.000000  0.459724 -0.000000 -0.147596 -0.000000
     1 y      -0.372190  0.000000 -0.482558  0.000000 -0.758873 -0.000000
     1 z       0.036855 -0.000000  0.565920 -0.000000 -0.166306 -0.000000
     2 x       0.201702 -0.000000 -0.322897  0.000000  0.113637  0.000000
     2 y      -0.664060  0.000000 -0.219837  0.000000  0.586299  0.000000
     2 z      -0.005177  0.000000 -0.287984  0.000000  0.134201  0.000000




--------------------------------------------------------------------------------
  K point     20 =   0.062500  0.312500  0.312500  Weight =    0.004
--------------------------------------------------------------------------------

 Frequencies (cm-1) and Eigenvectors : 

 Frequency     265.1387            267.8937            349.9595
 IR Intensity    0.0232              0.0234              0.0976
    in X         0.0000              0.0228              0.0964
    in Y         0.0077              0.0004              0.0008
    in Z         0.0154              0.0002              0.0004
 Raman Intsty    0.0000              0.0000              0.0000

                Real    Imaginary   Real    Imaginary   Real    Imaginary

     1 x       0.000000 -0.000000 -0.391237  0.000000 -0.253446 -0.000000
     1 y       0.247417 -0.000000  0.149364  0.000000  0.472616  0.000000
     1 z      -0.349901  0.000000  0.105616 -0.000000  0.334190  0.000000
     2 x       0.000001 -0.000000 -0.854290 -0.000000  0.452955  0.000000
     2 y       0.521649  0.000000  0.236162  0.000000  0.513516 -0.000000
     2 z      -0.737724  0.000000  0.166991  0.000000  0.363111  0.000000


 Frequency     360.1470            366.1512            923.1491
 IR Intensity    0.3914              0.2939              0.4142
    in X         0.0000              0.2849              0.0105
    in Y         0.1305              0.0060              0.2691
    in Z         0.2609              0.0030              0.1346
 Raman Intsty    0.0000              0.0000              0.0000

                Real    Imaginary   Real    Imaginary   Real    Imaginary

     1 x       0.000000  0.000000 -0.875351 -0.000000 -0.128290 -0.000000
     1 y      -0.521649  0.000000 -0.109878  0.000000 -0.639467 -0.000000
     1 z       0.737723 -0.000000 -0.077695  0.000000 -0.452172 -0.000000
     2 x      -0.000000 -0.000000  0.236821  0.000000  0.094535  0.000000
     2 y       0.247418 -0.000000 -0.326155 -0.000000  0.490732 -0.000000
     2 z      -0.349901  0.000000 -0.230627  0.000000  0.347000  0.000000




--------------------------------------------------------------------------------
  K point     21 =   0.062500  0.312500  0.437500  Weight =    0.004
--------------------------------------------------------------------------------

 Frequencies (cm-1) and Eigenvectors : 

 Frequency     292.4017            326.7213            368.2372
 IR Intensity    0.0524              0.1251              0.3505
    in X         0.0383              0.0497              0.2222
    in Y         0.0108              0.0368              0.0900
    in Z         0.0033              0.0386              0.0383
 Raman Intsty    0.0000              0.0000              0.0000

                Real    Imaginary   Real    Imaginary   Real    Imaginary

     1 x      -0.235891  0.000000  0.022390 -0.000000  0.744479  0.000000
     1 y       0.215788 -0.000000  0.151511 -0.000000 -0.517081 -0.000000
     1 z      -0.018527  0.000000  0.023570  0.000000  0.156863  0.000000
     2 x      -0.773201 -0.000000  0.577430  0.000000 -0.244405 -0.000000
     2 y       0.521899 -0.000000  0.659891 -0.000000  0.102370  0.000000
     2 z      -0.165016  0.000000 -0.455089  0.000000 -0.289066  0.000000


 Frequency     388.9586            421.4716            846.6144
 IR Intensity    0.2413              0.0608              0.4135
    in X         0.0964              0.0025              0.0055
    in Y         0.0636              0.0388              0.1745
    in Z         0.0813              0.0196              0.2335
 Raman Intsty    0.0000              0.0000              0.0000

                Real    Imaginary   Real    Imaginary   Real    Imaginary

     1 x       0.615471  0.000000 -0.044873 -0.000000 -0.093737 -0.000000
     1 y       0.614536  0.000000 -0.122157 -0.000000 -0.520126 -0.000000
     1 z      -0.236724 -0.000000  0.739121  0.000000 -0.610047 -0.000000
     2 x      -0.006655 -0.000000  0.067063  0.000000  0.066782  0.000000
     2 y       0.135818 -0.000000  0.334740  0.000000  0.388830 -0.000000
     2 z       0.411110  0.000000  0.565876  0.000000  0.439177  0.000000




--------------------------------------------------------------------------------
  K point     22 =   0.062500  0.312500  0.562500  Weight =    0.004
--------------------------------------------------------------------------------

 Frequencies (cm-1) and Eigenvectors : 

 Frequency     302.7341            359.8343            376.0063
 IR Intensity    0.1379              0.2244              0.1805
    in X         0.1351              0.1987              0.0744
    in Y         0.0027              0.0142              0.0817
    in Z         0.0000              0.0114              0.0243
 Raman Intsty    0.0000              0.0000              0.0000

                Real    Imaginary   Real    Imaginary   Real    Imaginary

     1 x      -0.053672  0.000000 -0.740454 -0.000000  0.644390  0.000000
     1 y       0.069350  0.000000  0.231558  0.000000  0.005337 -0.000000
     1 z      -0.008999 -0.000000  0.135329  0.000000  0.232618  0.000000
     2 x      -0.972433 -0.000000  0.186284  0.000000  0.121997 -0.000000
     2 y       0.214744  0.000000  0.579414  0.000000  0.711438  0.000000
     2 z      -0.022107  0.000000 -0.096806  0.000000 -0.097954  0.000000


 Frequency     415.1524            541.7746            735.2827
 IR Intensity    0.2420              0.0524              0.4065
    in X         0.0029              0.0016              0.0018
    in Y         0.1444              0.0478              0.1236
    in Z         0.0946              0.0029              0.2811
 Raman Intsty    0.0000              0.0000              0.0000

                Real    Imaginary   Real    Imaginary   Real    Imaginary

     1 x      -0.132510 -0.000000  0.116835  0.000000 -0.048975 -0.000000
     1 y      -0.751074 -0.000000  0.437172  0.000000 -0.431638 -0.000000
     1 z       0.097190  0.000000 -0.624007 -0.000000 -0.727093 -0.000000
     2 x      -0.030175  0.000000  0.044892 -0.000000  0.043177 -0.000000
     2 y       0.011123 -0.000000 -0.000266 -0.000000  0.334510 -0.000000
     2 z      -0.638630  0.000000 -0.635477  0.000000  0.410932  0.000000




--------------------------------------------------------------------------------
  K point     23 =   0.062500  0.312500  0.687500  Weight =    0.004
--------------------------------------------------------------------------------

 Frequencies (cm-1) and Eigenvectors : 

 Frequency     280.9452            344.0418            385.4267
 IR Intensity    0.2422              0.1719              0.0244
    in X         0.2419              0.1718              0.0003
    in Y         0.0004              0.0000              0.0238
    in Z         0.0000              0.0001              0.0003
 Raman Intsty    0.0000              0.0000              0.0000

                Real    Imaginary   Real    Imaginary   Real    Imaginary

     1 x      -0.189175 -0.000000 -0.973540 -0.000000  0.080333  0.000000
     1 y      -0.013167 -0.000000  0.079529  0.000000  0.352896  0.000000
     1 z       0.018813  0.000000 -0.021314 -0.000000  0.303484  0.000000
     2 x       0.979211  0.000000 -0.178326  0.000000  0.057937 -0.000000
     2 y      -0.063592 -0.000000  0.103772 -0.000000  0.815359 -0.000000
     2 z       0.028056  0.000000 -0.053584  0.000000  0.329759  0.000000


 Frequency     443.4763            582.1410            698.6041
 IR Intensity    0.3594              0.3884              0.0573
    in X         0.0000              0.0004              0.0003
    in Y         0.2039              0.1834              0.0031
    in Z         0.1554              0.2047              0.0540
 Raman Intsty    0.0000              0.0000              0.0000

[...]
     1 y      -0.378708 -0.000000  0.157434  0.000000  0.479324  0.000000
     1 z       0.793988  0.000000  0.455149  0.000000 -0.075812 -0.000000
     2 x      -0.351342  0.000000  0.624198  0.000000 -0.433406 -0.000000
     2 y       0.202328 -0.000000 -0.346323 -0.000000  0.318865  0.000000
     2 z       0.238009  0.000000 -0.193588  0.000000 -0.100564  0.000000




--------------------------------------------------------------------------------
  K point    252 =   0.437500  0.937500  0.312500  Weight =    0.004
--------------------------------------------------------------------------------

 Frequencies (cm-1) and Eigenvectors : 

 Frequency     319.8734            349.3767            388.7066
 IR Intensity    0.2247              0.1372              0.1878
    in X         0.0471              0.0109              0.0713
    in Y         0.1390              0.0013              0.0922
    in Z         0.0387              0.1251              0.0242
 Raman Intsty    0.0000              0.0000              0.0000

                Real    Imaginary   Real    Imaginary   Real    Imaginary

     1 x      -0.074200  0.000000  0.159051  0.000000  0.438041 -0.000000
     1 y      -0.091000  0.000000  0.054034  0.000000  0.766175 -0.000000
     1 z      -0.103244  0.000000  0.008244 -0.000000  0.396953 -0.000000
     2 x       0.443426  0.000000  0.453108  0.000000 -0.118482  0.000000
     2 y       0.806869  0.000000  0.154672  0.000000  0.195819  0.000000
     2 z       0.357618  0.000000 -0.861676  0.000000  0.105545  0.000000


 Frequency     410.7488            438.1644            795.6466
 IR Intensity    0.3116              0.3521              0.0302
    in X         0.0097              0.2587              0.0168
    in Y         0.1181              0.0556              0.0083
    in Z         0.1838              0.0378              0.0050
 Raman Intsty    0.0000              0.0000              0.0000

                Real    Imaginary   Real    Imaginary   Real    Imaginary

     1 x      -0.139774 -0.000000  0.627140 -0.000000  0.603719  0.000000
     1 y      -0.405396 -0.000000 -0.243899  0.000000 -0.421832 -0.000000
     1 z       0.694622  0.000000 -0.475069  0.000000  0.351440  0.000000
     2 x      -0.415426 -0.000000 -0.480905  0.000000  0.424476  0.000000
     2 y       0.347537  0.000000  0.280887 -0.000000 -0.294983 -0.000000
     2 z      -0.200641  0.000000 -0.106542  0.000000  0.258605  0.000000




--------------------------------------------------------------------------------
  K point    253 =   0.437500  0.937500  0.437500  Weight =    0.004
--------------------------------------------------------------------------------

 Frequencies (cm-1) and Eigenvectors : 

 Frequency     329.9491            341.3310            397.9117
 IR Intensity    0.1921              0.1690              0.2225
    in X         0.0480              0.0496              0.0556
    in Y         0.0160              0.1192              0.0185
    in Z         0.1280              0.0002              0.1483
 Raman Intsty    0.0000              0.0000              0.0000

                Real    Imaginary   Real    Imaginary   Real    Imaginary

     1 x       0.033520 -0.000000  0.014618 -0.000000  0.498875 -0.000000
     1 y      -0.019353  0.000000  0.003635 -0.000000 -0.288025  0.000000
     1 z      -0.054737  0.000000  0.007666  0.000000 -0.814660  0.000000
     2 x      -0.498875 -0.000000 -0.531028 -0.000000  0.033520  0.000000
     2 y       0.288026 -0.000000 -0.846793 -0.000000 -0.019353  0.000000
     2 z       0.814660  0.000000 -0.025800  0.000000 -0.054737  0.000000


 Frequency     410.7620            430.3460            793.3491
 IR Intensity    0.2463              0.3828              0.0309
    in X         0.0910              0.1556              0.0147
    in Y         0.1532              0.1017              0.0059
    in Z         0.0021              0.1255              0.0103
 Raman Intsty    0.0000              0.0000              0.0000

                Real    Imaginary   Real    Imaginary   Real    Imaginary

     1 x      -0.559691 -0.000000 -0.340076 -0.000000  0.566463  0.000000
     1 y      -0.822348 -0.000000  0.338830  0.000000 -0.354390 -0.000000
     1 z      -0.051996 -0.000000 -0.328048 -0.000000  0.472182  0.000000
     2 x       0.053694 -0.000000  0.553200  0.000000  0.398869 -0.000000
     2 y      -0.048863 -0.000000 -0.368593  0.000000 -0.247711 -0.000000
     2 z       0.050156  0.000000  0.469081  0.000000  0.331835  0.000000




--------------------------------------------------------------------------------
  K point    254 =   0.437500  0.937500  0.562500  Weight =    0.004
--------------------------------------------------------------------------------

 Frequencies (cm-1) and Eigenvectors : 

 Frequency     332.1289            362.2160            401.3612
 IR Intensity    0.1796              0.1057              0.2290
    in X         0.0545              0.0161              0.0494
    in Y         0.1146              0.0032              0.1730
    in Z         0.0105              0.0865              0.0065
 Raman Intsty    0.0000              0.0000              0.0000

                Real    Imaginary   Real    Imaginary   Real    Imaginary

     1 x       0.028614 -0.000000 -0.003712 -0.000000 -0.539322  0.000000
     1 y       0.012482 -0.000000  0.203274  0.000000 -0.791216  0.000000
     1 z      -0.058598  0.000000  0.089796  0.000000  0.240058 -0.000000
     2 x      -0.540192 -0.000000 -0.316964  0.000000 -0.116766 -0.000000
     2 y      -0.819309 -0.000000  0.389469  0.000000  0.050186 -0.000000
     2 z       0.180326  0.000000  0.835734  0.000000  0.096584  0.000000


 Frequency     424.7068            444.6581            765.6772
 IR Intensity    0.3713              0.3257              0.0323
    in X         0.1756              0.1005              0.0185
    in Y         0.0160              0.1024              0.0052
    in Z         0.1797              0.1227              0.0086
 Raman Intsty    0.0000              0.0000              0.0000

                Real    Imaginary   Real    Imaginary   Real    Imaginary

     1 x      -0.348178 -0.000000 -0.454861 -0.000000 -0.616582 -0.000000
     1 y       0.023678 -0.000000  0.472765  0.000000  0.329293  0.000000
     1 z      -0.515858 -0.000000  0.691456  0.000000 -0.432035 -0.000000
     2 x       0.603883  0.000000  0.220901  0.000000 -0.424994 -0.000000
     2 y      -0.283030 -0.000000 -0.206290 -0.000000  0.227743 -0.000000
     2 z       0.409050  0.000000 -0.011388  0.000000 -0.303730  0.000000




--------------------------------------------------------------------------------
  K point    255 =   0.437500  0.937500  0.687500  Weight =    0.004
--------------------------------------------------------------------------------

 Frequencies (cm-1) and Eigenvectors : 

 Frequency     302.7341            359.8343            376.0063
 IR Intensity    0.1925              0.2107              0.2288
    in X         0.0348              0.0005              0.1105
    in Y         0.1435              0.1070              0.0563
    in Z         0.0142              0.1032              0.0620
 Raman Intsty    0.0000              0.0000              0.0000

                Real    Imaginary   Real    Imaginary   Real    Imaginary

     1 x       0.014164 -0.000000 -0.192886 -0.000000  0.513668  0.000000
     1 y       0.053798 -0.000000 -0.743640 -0.000000  0.447512  0.000000
     1 z      -0.068384  0.000000  0.173205  0.000000 -0.072508 -0.000000
     2 x      -0.442275 -0.000000 -0.181363 -0.000000 -0.186393  0.000000
     2 y      -0.867521 -0.000000 -0.110392 -0.000000 -0.033255  0.000000
     2 z       0.209832  0.000000 -0.578546  0.000000 -0.703401  0.000000


 Frequency     415.1524            541.7746            735.2827
 IR Intensity    0.1881              0.3782              0.0452
    in X         0.1012              0.1324              0.0351
    in Y         0.0087              0.0891              0.0100
    in Z         0.0782              0.1567              0.0001
 Raman Intsty    0.0000              0.0000              0.0000

                Real    Imaginary   Real    Imaginary   Real    Imaginary

     1 x      -0.203716 -0.000000  0.324881  0.000000  0.742759  0.000000
     1 y      -0.035394 -0.000000 -0.322479 -0.000000 -0.372281 -0.000000
     1 z      -0.740516 -0.000000 -0.620172 -0.000000  0.164588  0.000000
     2 x       0.533316  0.000000 -0.496496 -0.000000  0.453678  0.000000
     2 y      -0.273067 -0.000000  0.338488  0.000000 -0.212075 -0.000000
     2 z      -0.223363  0.000000  0.211575  0.000000  0.178401  0.000000




--------------------------------------------------------------------------------
  K point    256 =   0.437500  0.937500  0.812500  Weight =    0.004
--------------------------------------------------------------------------------

 Frequencies (cm-1) and Eigenvectors : 

 Frequency     267.9396            309.7201            326.7482
 IR Intensity    0.1870              0.2090              0.2311
    in X         0.0208              0.0401              0.0683
    in Y         0.1376              0.0099              0.1620
    in Z         0.0285              0.1590              0.0008
 Raman Intsty    0.0000              0.0000              0.0000

                Real    Imaginary   Real    Imaginary   Real    Imaginary

     1 x      -0.004898 -0.000000 -0.053974  0.000000  0.425195  0.000000
     1 y       0.041222 -0.000000  0.335955  0.000000  0.797699  0.000000
     1 z      -0.059239 -0.000000 -0.141771 -0.000000 -0.291362 -0.000000
     2 x      -0.361667 -0.000000  0.427019  0.000000 -0.120195  0.000000
     2 y      -0.863785 -0.000000  0.168504  0.000000 -0.008851  0.000000
     2 z       0.343277  0.000000  0.808321  0.000000 -0.288909  0.000000


 Frequency     370.2138            626.1457            753.9161
 IR Intensity    0.1966              0.2613              0.1587
    in X         0.0802              0.1078              0.0974
    in Y         0.0006              0.0662              0.0383
    in Z         0.1158              0.0873              0.0231
 Raman Intsty    0.0000              0.0000              0.0000

                Real    Imaginary   Real    Imaginary   Real    Imaginary

     1 x      -0.378042 -0.000000  0.049133 -0.000000  0.819111  0.000000
     1 y      -0.150436 -0.000000 -0.148195 -0.000000 -0.452237 -0.000000
     1 z      -0.849307 -0.000000 -0.342537 -0.000000 -0.229883 -0.000000
     2 x       0.232116 -0.000000 -0.748819 -0.000000  0.240412  0.000000
     2 y      -0.126602 -0.000000  0.451392  0.000000 -0.074973 -0.000000
     2 z      -0.207909  0.000000  0.306283  0.000000  0.090959  0.000000




--------------------------------------------------------------------------------
  K point    257 =   0.437500  0.937500  0.937500  Weight =    0.004
--------------------------------------------------------------------------------

 Frequencies (cm-1) and Eigenvectors : 

 Frequency     250.4325            256.9201            304.6203
 IR Intensity    0.1333              0.1187              0.2812
    in X         0.0000              0.0498              0.0000
    in Y         0.0444              0.0459              0.0937
    in Z         0.0889              0.0230              0.1875
 Raman Intsty    0.0000              0.0000              0.0000

                Real    Imaginary   Real    Imaginary   Real    Imaginary

     1 x      -0.000000  0.000000  0.017088  0.000000  0.000000 -0.000000
     1 y      -0.045287  0.000000  0.107900  0.000000  0.575572 -0.000000
     1 z       0.064045 -0.000000  0.076297  0.000000 -0.813981  0.000000
     2 x      -0.000000 -0.000000  0.571109 -0.000000 -0.000000 -0.000000
     2 y      -0.575572 -0.000000  0.661351  0.000000 -0.045287 -0.000000
     2 z       0.813981  0.000000  0.467647  0.000000  0.064045  0.000000


 Frequency     312.5288            650.1496            795.1515
 IR Intensity    0.2952              0.0952              0.3200
    in X         0.1262              0.0477              0.1909
    in Y         0.1127              0.0317              0.0861
    in Z         0.0563              0.0159              0.0430
 Raman Intsty    0.0000              0.0000              0.0000

                Real    Imaginary   Real    Imaginary   Real    Imaginary

     1 x      -0.584038 -0.000000 -0.210905 -0.000000  0.783662  0.000000
     1 y      -0.649900 -0.000000  0.017362  0.000000 -0.482029 -0.000000
     1 z      -0.459549 -0.000000  0.012277  0.000000 -0.340846 -0.000000
     2 x       0.155895  0.000000 -0.798241 -0.000000 -0.111098 -0.000000
     2 y       0.026344  0.000000  0.460346  0.000000  0.129104 -0.000000
     2 z       0.018628  0.000000  0.325514  0.000000  0.091290  0.000000




--------------------------------------------------------------------------------
  Phonon properties (per mole of unit cells): Temperature =      0.000 K
--------------------------------------------------------------------------------
  Zero point energy            =        0.161351 eV
--------------------------------------------------------------------------------

  Phonon density of states : 

--------------------------------------------------------------------------------
 Frequency (cm-1) Density of States                                             
--------------------------------------------------------------------------------
    0.00000 |                                                              0.000
   16.99537 |                                                              0.000
   33.99074 |                                                              0.001
   50.98611 |                                                              0.000
   67.98148 |                                                              0.000
   84.97685 |**                                                            0.005
  101.97222 |*                                                             0.002
  118.96759 |                                                              0.001
  135.96296 |*****                                                         0.008
  152.95833 |******                                                        0.010
  169.95370 |*                                                             0.002
  186.94907 |***********                                                   0.017
  203.94444 |**********                                                    0.016
  220.93981 |*****                                                         0.008
  237.93518 |**************************                                    0.040
  254.93055 |**************                                                0.021
  271.92592 |************************                                      0.038
  288.92129 |*************************                                     0.038
  305.91666 |************************************************************  0.092
  322.91202 |*****************************************************         0.082
  339.90739 |*****************************************************         0.082
  356.90276 |**********************************                            0.053
  373.89813 |*******************************************                   0.066
  390.89350 |*****************************                                 0.045
  407.88887 |***************************************                       0.060
  424.88424 |*********************                                         0.033
  441.87961 |*******                                                       0.012
  458.87498 |****                                                          0.006
  475.87035 |******                                                        0.010
  492.86572 |*******                                                       0.012
  509.86109 |******                                                        0.010
  526.85646 |***                                                           0.006
  543.85183 |********                                                      0.014
  560.84720 |******                                                        0.010
  577.84257 |*****                                                         0.008
  594.83794 |********                                                      0.014
  611.83331 |******                                                        0.010
  628.82868 |***                                                           0.006
  645.82405 |*****                                                         0.008
  662.81942 |                                                              0.000
  679.81479 |*******                                                       0.012
  696.81016 |******                                                        0.010
  713.80553 |**                                                            0.004
  730.80090 |***                                                           0.006
  747.79627 |**********                                                    0.016
  764.79164 |********                                                      0.014
  781.78701 |*******                                                       0.012
  798.78238 |*****                                                         0.008
  815.77775 |********                                                      0.012
  832.77312 |***                                                           0.006
  849.76849 |*****                                                         0.008
  866.76386 |***                                                           0.006
  883.75923 |**                                                            0.004
  900.75460 |***                                                           0.006
  917.74997 |***                                                           0.006
  934.74534 |**                                                            0.005
  951.74071 |***                                                           0.006
  968.73607 |***                                                           0.006
  985.73144 |                                                              0.000
 1002.72681 |***                                                           0.006
 1019.72218 |*                                                             0.002
 1036.71755 |*                                                             0.003
 1053.71292 |*                                                             0.002
 1070.70829 |                                                              0.001
--------------------------------------------------------------------------------




  Phonon density of states written as phonon.gulp.dens              



  Time to end of optimisation =       0.1346 seconds


  Peak dynamic memory used =       1.55 MB 


  Timing analysis for GULP :

--------------------------------------------------------------------------------
  Task / Subroutine                                          Time (Seconds)
--------------------------------------------------------------------------------
  Calculation of reciprocal space energy and derivatives          0.0237
  Calculation of real space energy and derivatives                0.0725
  Calculation of phonons                                          0.1282
  Calculation of scattering                                       0.0000
  Disk read/write operations to scratch files                     0.0014
--------------------------------------------------------------------------------
  Total CPU time                                                  0.1347
--------------------------------------------------------------------------------


  Job Finished at 13:58.04 13th November   2017                               

