# ['Ni']

28 atoms
1 atom types

    0.0000     2.4418 xlo xhi
    0.0000     4.2292 ylo yhi
    0.0000    27.9115 zlo zhi

    0.0000     0.0000     0.0000 xy xz yz

Atoms

1 1     0.0000     0.0000     0.0000
2 1     1.2209     2.1146     0.0000
3 1     1.2209     0.7049     1.9937
4 1     0.0000     2.8195     1.9937
5 1     0.0000     1.4097     3.9874
6 1     1.2209     3.5244     3.9874
7 1     0.0000     0.0000     5.9811
8 1     1.2209     2.1146     5.9811
9 1     1.2209     0.7049     7.9747
10 1     0.0000     2.8195     7.9747
11 1     0.0000     1.4097     9.9684
12 1     1.2209     3.5244     9.9684
13 1     0.0000     0.0000    11.9621
14 1     1.2209     2.1146    11.9621
15 1     0.0000     1.4097    13.9558
16 1     1.2209     3.5244    13.9558
17 1     0.0000     0.0000    15.9495
18 1     1.2209     2.1146    15.9495
19 1     1.2209     0.7049    17.9431
20 1     0.0000     2.8195    17.9431
21 1     0.0000     1.4097    19.9368
22 1     1.2209     3.5244    19.9368
23 1     0.0000     0.0000    21.9305
24 1     1.2209     2.1146    21.9305
25 1     1.2209     0.7049    23.9242
26 1     0.0000     2.8195    23.9242
27 1     0.0000     1.4097    25.9179
28 1     1.2209     3.5244    25.9179
