# ['Ni']

107 atoms
1 atom types

    0.0000    10.2170 xlo xhi
    0.0000    10.2170 ylo yhi
    0.0000    10.2170 zlo zhi

    0.0000    -0.0000    -0.0000 xy xz yz

Atoms

1 1     1.7028     1.7028     0.0000
2 1     1.7028     0.0000     1.7028
3 1     0.0000     1.7028     1.7028
4 1     0.0000     0.0000     3.4057
5 1     1.7028     1.7028     3.4057
6 1     1.7028     0.0000     5.1085
7 1     0.0000     1.7028     5.1085
8 1     0.0000     0.0000     6.8114
9 1     1.7028     1.7028     6.8114
10 1     1.7028     0.0000     8.5142
11 1     0.0000     1.7028     8.5142
12 1     0.0000     3.4057     0.0000
13 1     1.7028     5.1085     0.0000
14 1     1.7028     3.4057     1.7028
15 1     0.0000     5.1085     1.7028
16 1     0.0000     3.4057     3.4057
17 1     1.7028     5.1085     3.4057
18 1     1.7028     3.4057     5.1085
19 1     0.0000     5.1085     5.1085
20 1     0.0000     3.4057     6.8114
21 1     1.7028     5.1085     6.8114
22 1     1.7028     3.4057     8.5142
23 1     0.0000     5.1085     8.5142
24 1     0.0000     6.8114     0.0000
25 1     1.7028     8.5142     0.0000
26 1     1.7028     6.8114     1.7028
27 1     0.0000     8.5142     1.7028
28 1     0.0000     6.8114     3.4057
29 1     1.7028     8.5142     3.4057
30 1     1.7028     6.8114     5.1085
31 1     0.0000     8.5142     5.1085
32 1     0.0000     6.8114     6.8114
33 1     1.7028     8.5142     6.8114
34 1     1.7028     6.8114     8.5142
35 1     0.0000     8.5142     8.5142
36 1     3.4057     0.0000     0.0000
37 1     5.1085     1.7028     0.0000
38 1     5.1085     0.0000     1.7028
39 1     3.4057     1.7028     1.7028
40 1     3.4057     0.0000     3.4057
41 1     5.1085     1.7028     3.4057
42 1     5.1085     0.0000     5.1085
43 1     3.4057     1.7028     5.1085
44 1     3.4057     0.0000     6.8114
45 1     5.1085     1.7028     6.8114
46 1     5.1085     0.0000     8.5142
47 1     3.4057     1.7028     8.5142
48 1     3.4057     3.4057     0.0000
49 1     5.1085     5.1085     0.0000
50 1     5.1085     3.4057     1.7028
51 1     3.4057     5.1085     1.7028
52 1     3.4057     3.4057     3.4057
53 1     5.1085     5.1085     3.4057
54 1     5.1085     3.4057     5.1085
55 1     3.4057     5.1085     5.1085
56 1     3.4057     3.4057     6.8114
57 1     5.1085     5.1085     6.8114
58 1     5.1085     3.4057     8.5142
59 1     3.4057     5.1085     8.5142
60 1     3.4057     6.8114     0.0000
61 1     5.1085     8.5142     0.0000
62 1     5.1085     6.8114     1.7028
63 1     3.4057     8.5142     1.7028
64 1     3.4057     6.8114     3.4057
65 1     5.1085     8.5142     3.4057
66 1     5.1085     6.8114     5.1085
67 1     3.4057     8.5142     5.1085
68 1     3.4057     6.8114     6.8114
69 1     5.1085     8.5142     6.8114
70 1     5.1085     6.8114     8.5142
71 1     3.4057     8.5142     8.5142
72 1     6.8114     0.0000     0.0000
73 1     8.5142     1.7028     0.0000
74 1     8.5142     0.0000     1.7028
75 1     6.8114     1.7028     1.7028
76 1     6.8114     0.0000     3.4057
77 1     8.5142     1.7028     3.4057
78 1     8.5142     0.0000     5.1085
79 1     6.8114     1.7028     5.1085
80 1     6.8114     0.0000     6.8114
81 1     8.5142     1.7028     6.8114
82 1     8.5142     0.0000     8.5142
83 1     6.8114     1.7028     8.5142
84 1     6.8114     3.4057     0.0000
85 1     8.5142     5.1085     0.0000
86 1     8.5142     3.4057     1.7028
87 1     6.8114     5.1085     1.7028
88 1     6.8114     3.4057     3.4057
89 1     8.5142     5.1085     3.4057
90 1     8.5142     3.4057     5.1085
91 1     6.8114     5.1085     5.1085
92 1     6.8114     3.4057     6.8114
93 1     8.5142     5.1085     6.8114
94 1     8.5142     3.4057     8.5142
95 1     6.8114     5.1085     8.5142
96 1     6.8114     6.8114     0.0000
97 1     8.5142     8.5142     0.0000
98 1     8.5142     6.8114     1.7028
99 1     6.8114     8.5142     1.7028
100 1     6.8114     6.8114     3.4057
101 1     8.5142     8.5142     3.4057
102 1     8.5142     6.8114     5.1085
103 1     6.8114     8.5142     5.1085
104 1     6.8114     6.8114     6.8114
105 1     8.5142     8.5142     6.8114
106 1     8.5142     6.8114     8.5142
107 1     6.8114     8.5142     8.5142
