# ['Mg', 'O']

40 atoms
2 atom types

    0.0000     3.6910 xlo xhi
    0.0000     3.6910 ylo yhi
    0.0000    36.9103 zlo zhi

    0.0000     0.0000     0.0000 xy xz yz

Atoms

1 1     1.0000     1.8455     1.8455     0.0000
2 1     1.0000     1.8455     0.0000     1.8455
3 1     1.0000     0.0000     0.0000     0.0000
4 1     1.0000     0.0000     1.8455     1.8455
5 1     1.0000     1.8455     1.8455     3.6910
6 1     1.0000     1.8455     0.0000     5.5365
7 1     1.0000     0.0000     0.0000     3.6910
8 1     1.0000     0.0000     1.8455     5.5365
9 1     1.0000     1.8455     1.8455     7.3821
10 1     1.0000     1.8455     0.0000     9.2276
11 1     1.0000     0.0000     0.0000     7.3821
12 1     1.0000     0.0000     1.8455     9.2276
13 1     1.0000     1.8455     1.8455    11.0731
14 1     1.0000     1.8455     0.0000    12.9186
15 1     1.0000     0.0000     0.0000    11.0731
16 1     1.0000     0.0000     1.8455    12.9186
17 1     1.0000     1.8455     1.8455    14.7641
18 1     1.0000     1.8455     0.0000    16.6096
19 1     1.0000     0.0000     0.0000    14.7641
20 1     1.0000     0.0000     1.8455    16.6096
21 2     1.0000     0.0000     1.8455     0.0000
22 2     1.0000     1.8455     0.0000     0.0000
23 2     1.0000     1.8455     1.8455     1.8455
24 2     1.0000     0.0000     0.0000     1.8455
25 2     1.0000     0.0000     1.8455     3.6910
26 2     1.0000     1.8455     0.0000     3.6910
27 2     1.0000     1.8455     1.8455     5.5365
28 2     1.0000     0.0000     0.0000     5.5365
29 2     1.0000     0.0000     1.8455     7.3821
30 2     1.0000     1.8455     0.0000     7.3821
31 2     1.0000     1.8455     1.8455     9.2276
32 2     1.0000     0.0000     0.0000     9.2276
33 2     1.0000     0.0000     1.8455    11.0731
34 2     1.0000     1.8455     0.0000    11.0731
35 2     1.0000     1.8455     1.8455    12.9186
36 2     1.0000     0.0000     0.0000    12.9186
37 2     1.0000     0.0000     1.8455    14.7641
38 2     1.0000     1.8455     0.0000    14.7641
39 2     1.0000     1.8455     1.8455    16.6096
40 2     1.0000     0.0000     0.0000    16.6096
