LAMMPS (12 Dec 2018)
# ---- initialize simulations
clear
units metal
dimension 3
boundary p p p
atom_style atomic
atom_modify map array
# ---- create atoms
read_data /Users/eugeneragasa/repos/pypospack/dev/workflow/LammpsThermalExpansion/Si_dia_unit.thermal_expansion/Si_dia_unit.npt_T700_P0/lammps.structure
  triclinic box = (0 0 0) to (5.43 5.43 5.43) with tilt (0 0 0)
  1 by 1 by 1 MPI processor grid
  reading atoms ...
  8 atoms
replicate 10 10 10
  triclinic box = (0 0 0) to (54.3 54.3 54.3) with tilt (0 0 0)
  1 by 1 by 1 MPI processor grid
  8000 atoms
  Time spent = 0.000891924 secs
change_box all x scale 1 y scale 1 z scale 1 remap
  triclinic box = (0 0 0) to (54.3 54.3 54.3) with tilt (0 0 0)
  triclinic box = (0 0 0) to (54.3 54.3 54.3) with tilt (0 0 0)
  triclinic box = (0 0 0) to (54.3 54.3 54.3) with tilt (0 0 0)
# ---- define interatomic potential
include potential.mod
mass 1 28.086

group Si type 1
8000 atoms in group Si

pair_style sw
pair_coeff * * Si.parameters Si


neighbor 1.0 bin
neigh_modify every 1 delay 0 check yes
# ---- define settings
compute eng all pe/atom
compute eatoms all reduce sum c_eng
# ---- run minimization
reset_timestep 0
fix 1 all box/relax iso 0.0 vmax 0.001
thermo 10
thermo_style custom step pe lx ly lz xy xz yz press pxx pyy pzz pxy pxz pyz c_eatoms
min_style cg
minimize 1e-25 1e-25 5000 10000
Neighbor list info ...
  update every 1 steps, delay 0 steps, check yes
  max neighbors/atom: 2000, page size: 100000
  master list distance cutoff = 4.77118
  ghost atom cutoff = 4.77118
  binsize = 2.38559, bins = 23 23 23
  1 neighbor lists, perpetual/occasional/extra = 1 0 0
  (1) pair sw, perpetual
      attributes: full, newton on
      pair build: full/bin/atomonly
      stencil: full/bin/3d
      bin: standard
Per MPI rank memory allocation (min/avg/max) = 5.26 | 5.26 | 5.26 Mbytes
Step PotEng Lx Ly Lz Xy Xz Yz Press Pxx Pyy Pzz Pxy Pxz Pyz c_eatoms 
       0   -34697.586         54.3         54.3         54.3            0            0            0    532.64171    532.64171    532.64171    532.64171 4.4249959e-10 4.4274437e-10 4.4239356e-10   -34697.586 
       3     -34697.6    54.309498    54.309498    54.309498            0            0            0 -1.0569038e-05 -1.0569038e-05 -1.0569038e-05 -1.0569039e-05 -2.0573232e-10 -1.9812815e-10 -1.9812815e-10     -34697.6 
Loop time of 0.044148 on 1 procs for 3 steps with 8000 atoms

98.0% CPU use with 1 MPI tasks x no OpenMP threads

Minimization stats:
  Stopping criterion = energy tolerance
  Energy initial, next-to-last, final = 
        -34697.5860368     -34697.5999993     -34697.5999993
  Force two-norm initial, final = 159.678 3.16955e-06
  Force max component initial, final = 159.678 3.16955e-06
  Final line search alpha, max atom move = 0.910682 2.88645e-06
  Iterations, force evaluations = 3 6

MPI task timing breakdown:
Section |  min time  |  avg time  |  max time  |%varavg| %total
---------------------------------------------------------------
Pair    | 0.039765   | 0.039765   | 0.039765   |   0.0 | 90.07
Neigh   | 0          | 0          | 0          |   0.0 |  0.00
Comm    | 0.00039434 | 0.00039434 | 0.00039434 |   0.0 |  0.89
Output  | 0          | 0          | 0          |   0.0 |  0.00
Modify  | 0          | 0          | 0          |   0.0 |  0.00
Other   |            | 0.003989   |            |       |  9.03

Nlocal:    8000 ave 8000 max 8000 min
Histogram: 1 0 0 0 0 0 0 0 0 0
Nghost:    4995 ave 4995 max 4995 min
Histogram: 1 0 0 0 0 0 0 0 0 0
Neighs:    0 ave 0 max 0 min
Histogram: 1 0 0 0 0 0 0 0 0 0
FullNghs:  224000 ave 224000 max 224000 min
Histogram: 1 0 0 0 0 0 0 0 0 0

Total # of neighbors = 224000
Ave neighs/atom = 28
Neighbor list builds = 0
Dangerous builds = 0
unfix 1
#------------------------------------------------------------------------------
# RUN THERMOSTAT
# running using an NPT Nose-Hoover style thermostat
#------------------------------------------------------------------------------
variable tempdamp equal 0.1
variable pressdamp equal 1.0

timestep 0.001
# set thermo -----------------------------------------------------------------
thermo 100
thermo_style custom step temp pe ke etotal press lx ly lz press pxx pyy pzz pxy pxz pyz vol
thermo_modify flush yes
# set averaging ---------------------------------------------------------------
variable boxx equal lx
variable boxy equal ly
variable boxz equal lz
variable boxp equal press
variable boxt equal temp
# calculate averages every 10000 steps
# set initial velocities ------------------------------------------------------
reset_timestep 0
velocity all create 700 6148462 mom yes dist gaussian loop all
# ramping the temperature
# fix for Nose-Hoover style thermostat ----------------------------------------
fix npt1 all npt temp 700 700 0.1 aniso 0.0 0.0 1.0 drag 1.0 couple xyz
fix npt1out all ave/time 1 500 500 v_boxx v_boxy v_boxz v_boxp v_boxt file lattice1.out
run 10000
Per MPI rank memory allocation (min/avg/max) = 4.26 | 4.26 | 4.26 Mbytes
Step Temp PotEng KinEng TotEng Press Lx Ly Lz Press Pxx Pyy Pzz Pxy Pxz Pyz Volume 
       0          700     -34697.6    723.76633   -33973.834    4826.0311    54.309498    54.309498    54.309498    4826.0311      4761.25    4858.3096    4858.5335   -33.887792    49.891586   -48.848642    160187.03 
     100     374.0628   -34323.521    386.76295   -33936.758   -2094.0529    54.431616    54.431616    54.431616   -2094.0529   -2109.4815   -2082.9098   -2089.7675   -933.86784   -606.48201     525.2827    161270.04 
     200    322.41604   -34223.398    333.36268   -33890.035    1087.2598    54.378744    54.378744    54.378744    1087.2598    1052.2337    1117.8367    1091.7091   -171.22743   -40.422425    295.97218    160800.55 
     300    403.75621   -34259.065     417.4645     -33841.6    958.42219    54.379554    54.379554    54.379554    958.42219    1029.2575    870.04949    975.95958    1067.9091    672.77101   -576.41505    160807.73 
     400    458.63988   -34266.491    474.21158    -33792.28   -1774.1904    54.433282    54.433282    54.433282   -1774.1904   -1750.5013   -1806.9263   -1765.1435    262.96475    216.79344   -393.47874    161284.84 
     500    454.90821    -34213.69    470.35321   -33743.337    1675.5172    54.373798    54.373798    54.373798    1675.5172    1592.2242     1644.044    1790.2834   -1108.6313   -654.93859    632.52675    160756.67 
     600    487.69927   -34199.287    504.25759    -33695.03   -1196.8293    54.432822    54.432822    54.432822   -1196.8293   -1208.8101   -1134.8836   -1246.7941   -590.75015   -362.26447     562.4189    161280.76 
     700    518.30218   -34183.432    535.89953   -33647.532    561.75092    54.407359    54.407359    54.407359    561.75092    507.98471    577.37457    599.89349    1059.8533    706.17921   -492.88272    161054.53 
     800    534.77393   -34154.448    552.93052   -33601.518       700.69    54.410752    54.410752    54.410752       700.69    624.93843    764.41866     712.7129    547.71307    410.56168   -549.23359    161084.66 
     900    551.48571   -34127.312    570.20969   -33557.102   -734.09379    54.440549    54.440549    54.440549   -734.09379   -629.24954   -714.20782     -858.824   -1187.9025   -776.54375    653.23588    161349.45 
    1000    577.93718   -34112.585    597.55924   -33515.026    1308.2098    54.407804    54.407804    54.407804    1308.2098    1402.3946    1261.4756    1260.7591   -642.14492   -566.93254     408.6229    161058.48 
    1100    582.78336   -34077.852    602.56997   -33475.282   -636.43201    54.444228    54.444228    54.444228   -636.43201    -573.1838   -789.10344   -547.00879    1193.5169    889.49391   -732.32428    161382.17 
    1200    600.32616   -34059.107    620.70837   -33438.399    62.574579    54.431335    54.431335    54.431335    62.574579   -21.349304    29.828063    179.24498    516.97542    664.02891   -301.10257    161267.54 
    1300    616.61859   -34041.559    637.55396   -33404.005    366.43472    54.431394    54.431394    54.431394    366.43472    363.13162    345.69417    390.47838   -1461.8805   -1089.9058    494.89713    161268.07 
    1400    629.02771   -34023.073     650.3844   -33372.689   -555.94476    54.451551    54.451551    54.451551   -555.94476   -524.63482   -621.03697   -522.16248   -735.30666   -598.78483   -24.854096    161447.29 
    1500    655.30286   -34022.856    677.55164   -33345.304    440.16752    54.432137    54.432137    54.432137    440.16752    466.90509    507.33298    346.26448    1337.5513    951.29609   -181.63479    161274.67 
    1600    648.27824   -33991.611    670.28851   -33321.322   -759.87557    54.454637    54.454637    54.454637   -759.87557   -846.88001   -637.15541   -795.59127    706.88504    614.65879    94.984401    161474.74 
    1700    643.12076   -33964.989    664.95593   -33300.033   -288.16074    54.444625    54.444625    54.444625   -288.16074   -293.10537   -351.88435    -219.4925   -1506.8921   -968.40656    294.26812    161385.69 
    1800    659.91927   -33964.915    682.32478    -33282.59    120.35869    54.445092    54.445092    54.445092    120.35869    224.48346    71.904404    64.688215   -323.97628   -831.95606   -101.23752    161389.85 
    1900    654.53087   -33944.885    676.75343   -33268.131   -860.87871    54.460333    54.460333    54.460333   -860.87871   -885.02282   -943.74289   -753.87043    1436.2406    1356.7928   -460.42568    161525.42 
    2000    699.85409    -33978.37    723.61546   -33254.754    708.46017    54.438907    54.438907    54.438907    708.46017    729.89809    880.66342    514.81899    625.83984    475.23443   -134.17026    161334.85 
    2100    670.74182   -33940.632    693.51478   -33247.118   -814.87746    54.463233    54.463233    54.463233   -814.87746   -797.64109   -750.50108    -896.4902   -1180.4548   -1045.4487    502.98111    161551.23 
    2200    677.59934    -33939.36    700.60512   -33238.754    173.36657    54.447484    54.447484    54.447484    173.36657    215.93132    264.22685    39.941538   -489.89699   -590.14697   -77.341247    161411.12 
    2300    679.70785   -33937.163    702.78522   -33234.378   -254.37283    54.452668    54.452668    54.452668   -254.37283   -372.13861   -97.420122   -293.55977    1361.6389    974.61356   -571.10229    161457.22 
    2400    716.17075   -33971.598    740.48611   -33231.111   -464.53163    54.460559    54.460559    54.460559   -464.53163   -545.46939    -346.9911   -501.13441    162.93866    615.74422    82.887248    161527.43 
    2500    691.47123   -33943.777    714.94799   -33228.829    451.07721    54.441894    54.441894    54.441894    451.07721    481.92804    312.37365    558.92992   -1222.6651   -1063.9528     693.2132    161361.41 
    2600    677.61278   -33930.651    700.61903   -33230.032   -763.09208    54.464909    54.464909    54.464909   -763.09208    -809.6463   -712.56461   -767.06533   -528.57033   -366.22372   -518.40066    161566.14 
    2700    711.38458   -33963.196    735.53744   -33227.658    308.38205    54.448175    54.448175    54.448175    308.38205    305.46816     354.6698    265.00818     1505.947    996.77829   -355.60976    161417.26 
    2800    703.41674   -33955.751    727.29907   -33228.452     97.48841    54.451411    54.451411    54.451411     97.48841    74.816883    301.93075   -84.282404    368.25445    235.44573    412.56001    161446.05 
    2900    689.15378   -33940.996    712.55186   -33228.445    -362.8687    54.460772    54.460772    54.460772    -362.8687   -365.42356   -299.27182   -423.91071   -1431.9701   -895.40892    155.30058    161529.32 
    3000    704.09061   -33956.846    727.99582    -33228.85    610.96557    54.442744    54.442744    54.442744    610.96557    482.73701    680.52436    669.63534   -202.76647    -472.2408   -53.320257    161368.97 
    3100    703.57767    -33956.68    727.46547   -33229.214   -309.45125    54.461537    54.461537    54.461537   -309.45125   -455.80697   -242.25194   -230.29483    1220.1619    616.25528    107.18352    161536.13 
    3200    704.35264   -33956.442    728.26676   -33228.175    444.04451    54.447044    54.447044    54.447044    444.04451    407.71337    428.09797    496.32218    485.68182    428.29236   -91.512258    161407.21 
    3300    688.16867   -33940.001     711.5333   -33228.468   -54.603209    54.453826    54.453826    54.453826   -54.603209   -36.165173    25.654554   -153.29901   -1238.7821   -784.74577   -36.490725    161467.53 
    3400    685.50528    -33937.85    708.77949    -33229.07   -478.57678    54.458299    54.458299    54.458299   -478.57678    -468.9422    -289.5601   -677.22805   -330.88349    -316.9386    304.06045    161507.32 
    3500    713.17979   -33964.485     737.3936   -33227.092    793.62893    54.442749    54.442749    54.442749    793.62893    667.57776    937.41964    775.88939    865.18685    977.51051   -81.134845    161369.01 
    3600    712.35682   -33966.134    736.54269   -33229.591   -564.76075    54.465238    54.465238    54.465238   -564.76075   -715.99505   -618.69634   -359.59086    256.52705    346.40024   -455.56993    161569.06 
    3700    709.23159    -33960.84    733.31135   -33227.529    719.06504    54.441808    54.441808    54.441808    719.06504    810.26731    754.89034    592.03746   -1010.6179   -862.77865    190.91539    161360.64 
    3800    691.05779   -33943.351    714.52052   -33228.831   -535.58792    54.461064    54.461064    54.461064   -535.58792   -571.80515   -611.22504   -423.73359   -158.89487    160.73978    584.50097    161531.93 
    3900    693.39559   -33946.305    716.93769   -33229.368   -282.15561    54.454226    54.454226    54.454226   -282.15561   -435.55029   -174.65724    -236.2593    810.96775    730.54733    95.572012    161471.09 
    4000    676.27092   -33927.387     699.2316   -33228.155    239.30383    54.446725    54.446725    54.446725    239.30383    259.74371    377.81441    80.353367   -121.46025      414.626   -485.06201    161404.37 
    4100    695.13285   -33949.352    718.73393   -33230.618   -929.98562    54.468042    54.468042    54.468042   -929.98562    -828.8851   -813.76235   -1147.3094   -748.58324   -655.30043    31.490259    161594.03 
    4200    701.32158     -33953.9    725.13278   -33228.768    903.09467    54.437784    54.437784    54.437784    903.09467    919.41783    847.70225    942.16395    183.21256   -249.48888    847.00906    161324.86 
    4300    712.46223   -33964.371    736.65168    -33227.72   -328.70488    54.462804    54.462804    54.462804   -328.70488   -336.49135    -396.9451   -252.67817    608.98305    526.36541   -16.938362     161547.4 
    4400    690.90092    -33943.33    714.35832   -33228.971   -125.76711    54.454351    54.454351    54.454351   -125.76711   -121.93101   -62.517869   -192.85244    42.147306    236.79306   -883.57757    161472.19 
    4500    706.64216   -33958.211      730.634   -33227.577    735.87766    54.442387    54.442387    54.442387    735.87766     690.3595    554.27291    963.00057   -786.53937   -691.91152     238.0235    161365.79 
    4600    700.70482   -33953.572    724.49507   -33229.077   -815.80828    54.468554    54.468554    54.468554   -815.80828   -765.12459   -904.34697   -777.95328   -108.85098   -101.54037    448.66191    161598.58 
    4700    678.60506   -33932.008    701.64499   -33230.363    590.29859    54.439325    54.439325    54.439325    590.29859    636.68346    613.34166    520.87064    1015.6943    362.49366    -428.4177    161338.56 
    4800     706.4217   -33958.225    730.40606   -33227.819   -438.82131    54.460058    54.460058    54.460058   -438.82131   -474.45395   -455.15265   -386.85735   -93.883821   -316.12766   -366.02397    161522.97 
    4900    694.73432   -33947.553    718.32187   -33229.231   -265.71513    54.456497    54.456497    54.456497   -265.71513    -425.8342   -206.52727    -164.7839   -648.24523   -696.79609    407.27216    161491.29 
    5000    725.62304   -33977.641    750.25932   -33227.382    832.54651    54.441418    54.441418    54.441418    832.54651    869.37793    1056.4014    571.86017    265.68008    285.10976    662.55371    161357.17 
    5100    709.36706   -33962.011    733.45142    -33228.56   -723.56056    54.467151    54.467151    54.467151   -723.56056   -586.77264   -731.24044   -852.66861    847.92607    690.72028    -639.9882     161586.1 
    5200    700.83593   -33953.218    724.63065   -33228.587     663.7999    54.440944    54.440944    54.440944     663.7999    713.35999    705.41958    572.62012   -277.79137   -338.50831   -517.64912    161352.97 
    5300    704.51351   -33956.772    728.43309   -33228.339   -108.37191    54.456671    54.456671    54.456671   -108.37191   -31.019392   -125.32693    -168.7694    -689.1577   -319.14632    475.87151    161492.83 
    5400     723.2458   -33976.232    747.80137   -33228.431     49.24125     54.45746     54.45746     54.45746     49.24125      20.7171    11.332276    115.67437    449.94791    141.57773    584.32561    161499.86 
    5500    703.25811   -33954.042    727.13505   -33226.907     881.8806    54.439304    54.439304    54.439304     881.8806    788.91164     903.4593    953.27085    844.19717    146.62579   -281.11941    161338.38 
    5600    678.45416   -33932.168    701.48897   -33230.679   -1249.0327    54.470136    54.470136    54.470136   -1249.0327    -1065.213   -1185.4802   -1496.4047   -268.71579   -165.76396   -705.99339    161612.66 
    5700    676.42692   -33929.368     699.3929   -33229.975    379.57331    54.442878    54.442878    54.442878    379.57331    420.93402    342.22544    375.56047   -856.24748   -239.90636    247.26567    161370.16 
    5800    695.16506   -33947.103    718.76723   -33228.336   -86.520705    54.453537    54.453537    54.453537   -86.520705    69.619668   -174.55317   -154.62861    515.90282    61.992394    566.33287    161464.96 
    5900    694.53547   -33947.661    718.11627   -33229.545   -555.58039    54.461942    54.461942    54.461942   -555.58039   -498.85506   -633.25284   -534.63328     833.1599       289.69   -581.06521    161539.74 
    6000    708.33838   -33960.009    732.38782   -33227.622    753.13202    54.438785    54.438785    54.438785    753.13202    654.28482    830.72774    774.38351   -229.66104   -51.894483   -541.42814    161333.76 
    6100    695.07553   -33946.972    718.67467   -33228.298   -621.25759    54.465475    54.465475    54.465475   -621.25759   -595.52694   -637.53564   -630.71018   -997.31164   -101.74515    714.36457    161571.17 
    6200    694.75509    -33948.01    718.34335   -33229.667    178.10649     54.44804     54.44804     54.44804    178.10649    206.39672    172.74587    155.17688    443.20253   -66.033555     590.3709    161416.07 
    6300    703.78627   -33955.603    727.68115   -33227.922    252.80045    54.448586    54.448586    54.448586    252.80045    161.88934    394.32924    202.18276    977.57694   -25.254766    -212.7921    161420.92 
    6400    703.13817   -33955.763    727.01105   -33228.752   -717.42563    54.466904    54.466904    54.466904   -717.42563   -609.15753    -679.1971   -863.92226    -627.7658    234.20406   -190.64194    161583.89 
    6500    707.74491   -33960.223    731.77419   -33228.449    1010.7274    54.435962    54.435962    54.435962    1010.7274    1068.2545    993.87978    970.04791   -1001.3237   -189.78879    260.05889    161308.67 
    6600    697.48895   -33950.561    721.17002   -33229.391   -816.09756    54.466872    54.466872    54.466872   -816.09756   -849.15415   -973.53445   -625.60407    812.67333   -300.45989    382.08241    161583.61 
    6700    705.74886   -33957.843    729.71038   -33228.133      439.629    54.447104    54.447104    54.447104      439.629    490.50247    453.63097    374.75356    575.13636     32.81099   -406.42086    161407.74 
    6800    696.02173   -33947.062    719.65299   -33227.409    257.56685    54.448751    54.448751    54.448751    257.56685    106.06196    367.60654    299.03206   -724.14888    243.91803   -339.48749    161422.39 
    6900    695.76702   -33948.952    719.38963   -33229.562    -865.1363    54.466044    54.466044    54.466044    -865.1363   -796.73252    -966.7281   -831.94828   -814.45465    229.44131    486.89902    161576.24 
    7000    692.58241   -33944.856     716.0969   -33228.759    759.27786    54.438917    54.438917    54.438917    759.27786    668.13511    717.23304    892.46543     703.3963   -180.25794    283.55387    161334.94 
    7100    699.82914   -33952.847    723.58967   -33229.257   -607.70986    54.464333    54.464333    54.464333   -607.70986   -643.14329   -448.60179   -731.38448    600.08022   -197.06132   -260.12551    161561.01 
    7200    697.25964   -33949.998    720.93293   -33229.065    47.466094    54.449968    54.449968    54.449968    47.466094    113.43335    56.306992    -27.34206   -671.08763    290.17893   -344.83571    161433.21 
    7300    709.66228   -33961.736    733.75667    -33227.98    372.89099    54.447376    54.447376    54.447376    372.89099     600.3684    342.11412    176.19044   -423.29784     443.8232     472.2453    161410.16 
    7400    689.07486   -33941.391    712.47026   -33228.921   -705.17063    54.464825    54.464825    54.464825   -705.17063   -644.12802   -658.23196    -813.1519     470.7749   -41.224106    455.59053    161565.39 
    7500     698.6975   -33950.466    722.41961   -33228.046    743.61707    54.439638    54.439638    54.439638    743.61707    877.20573    555.73809     797.9074    273.87337   -325.51661   -305.93679    161341.35 
    7600    692.14719    -33945.27     715.6469   -33229.623   -538.09822    54.462759    54.462759    54.462759   -538.09822   -456.22558   -515.80307   -642.26602   -745.03436    38.444237   -604.15953       161547 
    7700    706.20798   -33959.079    730.18508   -33228.894    228.24362     54.44938     54.44938     54.44938    228.24362    165.14647     375.2622    144.32218   -248.33425    309.93326      301.906    161427.99 
    7800    697.27707   -33949.425    720.95095   -33228.474    106.80339     54.44894     54.44894     54.44894    106.80339    52.665571    128.91233    138.83226    258.84094   -300.84739    779.69324    161424.07 
    7900    690.67637   -33942.384    714.12615   -33228.258   -647.72941    54.462917    54.462917    54.462917   -647.72941   -716.58183   -465.97829   -760.62812    563.86809   -129.91888   -442.10206    161548.41 
    8000    692.59814   -33945.124    716.11316   -33229.011    387.31956    54.443487    54.443487    54.443487    387.31956    429.22027    352.97498    379.76345   -599.60892    51.198158   -907.95466    161375.57 
    8100    711.27927    -33964.64    735.42855   -33229.211   -228.29567    54.460615    54.460615    54.460615   -228.29567   -255.85024   -202.65743   -226.37935     340.0659    253.42977    252.84178    161527.93 
    8200    683.86744   -33937.019    707.08604   -33229.933    109.17583    54.449066    54.449066    54.449066    109.17583    115.49115   -79.560466     291.5968    551.22657    78.661493    453.46565    161425.19 
    8300    710.66427   -33963.043    734.79267    -33228.25     245.9095    54.448975    54.448975    54.448975     245.9095    67.004968    143.11161    527.61192   -339.10583   -470.60462   -521.05842    161424.38 
    8400    696.58824   -33948.761    720.23873   -33228.522     -562.455    54.463342    54.463342    54.463342     -562.455   -502.00423   -503.01573   -682.34502   -481.89177    104.56621   -292.82428    161552.19 
    8500    707.74594   -33959.071    731.77526   -33227.296    930.02177      54.4386      54.4386      54.4386    930.02177    898.44929    1145.8732    745.74285    349.59898     523.3914    589.75232    161332.13 
    8600    708.67515   -33961.559    732.73602   -33228.823   -622.76279    54.464722    54.464722    54.464722   -622.76279   -719.35692   -671.76565   -477.16578    529.21153    -108.0455    374.59563    161564.48 
    8700    709.36963   -33962.552    733.45408   -33229.098    391.26445    54.447927    54.447927    54.447927    391.26445    561.62676    192.46921    419.69736   -495.77342   -606.74057   -585.87634    161415.06 
    8800    706.56497   -33958.054    730.55419     -33227.5    372.46103    54.447812    54.447812    54.447812    372.46103     451.7545    141.61872    524.00986   -559.68168    230.59721    77.091263    161414.03 
    8900    712.49375   -33965.412    736.68427   -33228.727   -572.43608    54.465848    54.465848    54.465848   -572.43608   -455.61733   -717.44123   -544.24967    1258.5079    206.54863    793.37233     161574.5 
    9000    708.85433   -33960.231    732.92128    -33227.31    967.91562    54.437041    54.437041    54.437041    967.91562    1130.0188    944.91986    828.80819    102.23107   -216.69083    189.45075    161318.26 
    9100    702.07683   -33954.375    725.91367   -33228.461   -482.22504     54.46478     54.46478     54.46478   -482.22504   -430.08083   -440.29394   -576.30035   -973.57441   -24.247387   -645.24383    161564.99 
    9200    699.54945   -33953.059    723.30049   -33229.758     80.41648    54.452309    54.452309    54.452309     80.41648     136.9035    142.49062   -38.144678   -10.065158    115.95675   -257.83856    161454.03 
    9300    698.07276   -33950.456    721.77366   -33228.682     544.5676    54.442402    54.442402    54.442402     544.5676    429.39942    758.47563    445.82776    868.58954   -274.58123    707.93803    161365.93 
    9400    703.52741   -33956.132     727.4135   -33228.719   -915.10206    54.470399    54.470399    54.470399   -915.10206   -987.20398   -969.82212   -788.28007   -177.54094   -56.492176    29.913583       161615 
    9500    701.34112   -33953.589    725.15298   -33228.436    773.15125    54.438628    54.438628    54.438628    773.15125      680.843    909.36011    729.25064   -575.97848    221.59356   -710.43696    161332.37 
    9600    710.20903   -33962.138    734.32198   -33227.816   -254.20233    54.458699    54.458699    54.458699   -254.20233   -283.18126    -184.8206   -294.60513   -40.604514   -274.56189   -33.598947    161510.88 
    9700    693.18842   -33946.444    716.72349    -33229.72   -379.25544    54.458859    54.458859    54.458859   -379.25544   -263.06572   -477.05828   -397.64232    702.63073    6.5433271     673.0462    161512.31 
    9800    685.15874   -33937.137    708.42118   -33228.716     682.3395    54.438135    54.438135    54.438135     682.3395    549.41665    699.34967     798.2522   -184.68782   -21.958745   -223.31471    161327.99 
    9900    691.49233   -33944.016    714.96981   -33229.047    -1053.133    54.471631    54.471631    54.471631    -1053.133   -1133.9268   -1063.0691   -962.40321   -543.61725    58.502613   -785.12987    161625.96 
   10000    703.65252   -33955.679    727.54286   -33228.136    598.80293    54.440152    54.440152    54.440152    598.80293    577.45266    619.22564     599.7305   -177.21287   -132.73116     173.2917    161345.92 
Loop time of 143.066 on 1 procs for 10000 steps with 8000 atoms

Performance: 6.039 ns/day, 3.974 hours/ns, 69.898 timesteps/s
98.2% CPU use with 1 MPI tasks x no OpenMP threads

MPI task timing breakdown:
Section |  min time  |  avg time  |  max time  |%varavg| %total
---------------------------------------------------------------
Pair    | 135.32     | 135.32     | 135.32     |   0.0 | 94.58
Neigh   | 3.2145     | 3.2145     | 3.2145     |   0.0 |  2.25
Comm    | 0.48193    | 0.48193    | 0.48193    |   0.0 |  0.34
Output  | 0.013154   | 0.013154   | 0.013154   |   0.0 |  0.01
Modify  | 3.5496     | 3.5496     | 3.5496     |   0.0 |  2.48
Other   |            | 0.4888     |            |       |  0.34

Nlocal:    8000 ave 8000 max 8000 min
Histogram: 1 0 0 0 0 0 0 0 0 0
Nghost:    4995 ave 4995 max 4995 min
Histogram: 1 0 0 0 0 0 0 0 0 0
Neighs:    0 ave 0 max 0 min
Histogram: 1 0 0 0 0 0 0 0 0 0
FullNghs:  221110 ave 221110 max 221110 min
Histogram: 1 0 0 0 0 0 0 0 0 0

Total # of neighbors = 221110
Ave neighs/atom = 27.6388
Neighbor list builds = 334
Dangerous builds = 0
# holding temperature here
# fix for Nose-Hoover style thermostat ----------------------------------------
fix npt2 all npt temp 700 700 0.1 aniso 0.0 0.0 1.0 drag 1.0 couple xyz
fix npt2out all ave/time 1 500 500 v_boxx v_boxy v_boxz v_boxp v_boxt file lattice2.out
compute rdf2 all rdf 50
fix rdf2out all ave/time 100 1 100 c_rdf2[*] file rdf2.out mode vector
run 10000# ---- define output variables ----
WARNING: One or more atoms are time integrated more than once (../modify.cpp:283)
Neighbor list info ...
  update every 1 steps, delay 0 steps, check yes
  max neighbors/atom: 2000, page size: 100000
  master list distance cutoff = 4.77118
  ghost atom cutoff = 4.77118
  binsize = 2.38559, bins = 23 23 23
  2 neighbor lists, perpetual/occasional/extra = 1 1 0
  (1) pair sw, perpetual
      attributes: full, newton on
      pair build: full/bin/atomonly
      stencil: full/bin/3d
      bin: standard
  (2) compute rdf, occasional, half/full from (1)
      attributes: half, newton on
      pair build: halffull/newton
      stencil: none
      bin: none
Per MPI rank memory allocation (min/avg/max) = 5.403 | 5.403 | 5.403 Mbytes
Step Temp PotEng KinEng TotEng Press Lx Ly Lz Press Pxx Pyy Pzz Pxy Pxz Pyz Volume 
   10000    703.65252   -33955.679    727.54286   -33228.136    598.80293    54.440152    54.440152    54.440152    598.80293    577.45266    619.22564     599.7305   -177.21287   -132.73116     173.2917    161345.92 
   10100    917.35406   -33728.563    948.49997   -32780.063   -833.39222    54.533479    54.533479    54.533479   -833.39222   -1064.9714   -791.98774    -643.2175    251.22878    292.59866   -111.63469    162177.14 
   10200     1152.936   -33469.666    1192.0804   -32277.586    1331.9532    54.570195    54.570195    54.570195    1331.9532    1458.7275    1118.4179    1418.7143   -160.79988   -159.04632    433.06218    162504.92 
   10300    1395.4908   -33173.507    1442.8704   -31730.637    -1079.971    54.701075    54.701075    54.701075    -1079.971   -709.64587   -1322.9294   -1207.3379      390.276    104.68735   -546.31253    163676.97 
   10400    1666.5827   -32889.507    1723.1664   -31166.341    1192.1254    54.751782    54.751782    54.751782    1192.1254    1587.9376    1226.1652    762.27339    101.09856   -492.74943    2039.6043    164132.57 
   10500    1890.6402   -32576.079    1954.8311   -30621.248   -868.98899    54.876361    54.876361    54.876361   -868.98899   -679.20449   -693.65164   -1234.1109    -595.1403    803.87157     -1933.82     165255.5 
   10600    2134.8931   -32339.902    2207.3767   -30132.525     864.4118    54.924718    54.924718    54.924718     864.4118    798.34145     490.7525    1304.1415    537.30933    1911.2327    1111.9791    165692.75 
   10700    2308.9349   -32118.734    2387.3277   -29731.406   -394.42562    55.002102    55.002102    55.002102   -394.42562   -278.38223    65.025114   -969.91973   -173.51285   -2080.7601    3043.2101    166394.07 
   10800    2459.3392   -31967.176    2542.8384   -29424.338   -219.64118    55.040443    55.040443    55.040443   -219.64118   -570.42903    311.81747   -400.31198    8.8807889    337.87162   -2830.2324    166742.29 
   10900    2533.3108   -31834.773    2619.3215   -29215.452    54.451139    55.056386    55.056386    55.056386    54.451139    615.94445    153.94497     -606.536   -157.95586    941.00092    857.93749    166887.22 
   11000    2587.9195   -31762.724    2675.7843    -29086.94   -482.53235    55.078652    55.078652    55.078652   -482.53235   -646.94317   -259.37537   -541.27851    -1515.795   -287.36118    250.47197    167089.78 
   11100    2602.5713   -31711.438    2690.9336   -29020.505    189.40077    55.065025    55.065025    55.065025    189.40077    -262.0969    760.34873    69.950467   -501.36763    1926.9563   -1697.4887     166965.8 
   11200    2611.5799   -31696.584     2700.248   -28996.336   -761.16119    55.080455    55.080455    55.080455   -761.16119   -344.52495   -1283.0739   -655.88472    1556.2039   -1765.0925    2480.5945     167106.2 
   11300    2611.5482   -31698.539    2700.2152   -28998.324    694.08357    55.052246    55.052246    55.052246    694.08357    1044.3793    277.04158    760.82982   -565.04919   -32.076937    278.52729    166849.59 
   11400    2601.6383   -31702.255    2689.9689   -29012.286   -903.43583    55.075702    55.075702    55.075702   -903.43583   -1066.3601   -835.55265   -808.39473   -1513.2501    754.70767   -827.24089    167062.94 
   11500    2608.8057   -31734.095    2697.3796   -29036.716    881.41023    55.037956    55.037956    55.037956    881.41023     1457.293     117.0627     1069.875     1368.037   -2958.3506    402.03538    166719.69 
   11600    2595.7732   -31739.251    2683.9047   -29055.346   -639.74678    55.065035    55.065035    55.065035   -639.74678   -893.29522   -420.92817   -605.01694    -43.12846    6.8850976    1950.0399    166965.89 
   11700     2583.671   -31735.706    2671.3916   -29064.314    537.13158    55.045875    55.045875    55.045875    537.13158    206.14586    1545.6394   -140.39054   -1549.7493    3110.6833    605.47804    166791.66 
   11800    2590.4132    -31751.13    2678.3627   -29072.768   -5.7907852    55.052828    55.052828    55.052828   -5.7907852    203.55578    470.04112   -690.96926   -998.37144    -1380.469   -922.38259    166854.87 
   11900    2580.1191   -31743.048    2667.7191   -29075.329   -424.56067    55.055674    55.055674    55.055674   -424.56067   -319.49534   -124.10961   -830.07707    44.955527   -1391.1204    370.82361    166880.75 
   12000    2583.8191     -31744.8    2671.5447   -29073.256    480.15533    55.046326    55.046326    55.046326    480.15533   -316.58984    982.22734    774.82849    129.84118    858.81923    3159.7533    166795.76 
   12100    2617.3527   -31778.277    2706.2168    -29072.06   -579.23952    55.068164    55.068164    55.068164   -579.23952   -687.18215   -164.15474   -886.38167   -195.96918    205.97456    503.59746    166994.36 
   12200    2625.9861   -31795.349    2715.1433   -29080.206    481.83647     55.03696     55.03696     55.03696    481.83647    588.73922    883.79965   -27.029451    309.27837    629.55224    -3664.079    166710.64 
   12300    2591.8226   -31773.043    2679.8199   -29093.223   -963.68478    55.061522    55.061522    55.061522   -963.68478   -825.93863     -1336.69   -728.42568   -648.89452   -1656.3277    382.57586    166933.94 
   12400    2577.6124   -31769.627    2665.1272     -29104.5    747.03978    55.026573    55.026573    55.026573    747.03978    664.77194    563.32264    1013.0248   -383.81053   -616.94039    3156.7553    166616.26 
   12500    2590.4674   -31798.242    2678.4187   -29119.824    -520.2106    55.054226    55.054226    55.054226    -520.2106   -879.74585   -648.08122   -32.804726    473.84417     1399.697   -2060.5167    166867.59 
   12600    2588.1387   -31802.947    2676.0109   -29126.936    559.88895    55.032594    55.032594    55.032594    559.88895    784.17589    894.92709   0.56387931   -955.18355   -457.09495   -124.48131    166670.97 
   12700    2566.1299   -31784.336    2653.2549   -29131.081    6.7914128    55.046858    55.046858    55.046858    6.7914128     206.1464    418.41864   -604.19081     3382.441   -1067.1063    3070.8617     166800.6 
   12800    2591.0984   -31807.721    2679.0711    -29128.65   -210.63596    55.046876    55.046876    55.046876   -210.63596   -33.637856   -621.22596     22.95594    1798.7928    1618.8642   -1512.5697    166800.76 
   12900    2564.4187   -31776.898    2651.4856   -29125.413    301.32384    55.043183    55.043183    55.043183    301.32384    354.86387    998.79083   -449.68318   -1964.0769    603.41878   -1799.8835     166767.2 
   13000    2554.8156   -31761.539    2641.5565   -29119.983   -345.68543       55.058       55.058       55.058   -345.68543   -597.66532    28.813768   -468.20473    3458.6978   -1406.1929    2679.1308    166901.91 
   13100    2577.2745   -31782.268    2664.7778    -29117.49    242.51073    55.040558    55.040558    55.040558    242.51073    654.09262    431.40919    -357.9696    1782.4574    2020.8172    577.65664    166743.33 
   13200    2608.5933   -31813.825      2697.16   -29116.665   -483.19411    55.057403    55.057403    55.057403   -483.19411   -138.94591   -468.16282   -842.47362   -2235.1934   -1478.0863   -2003.1858    166896.48 
   13300    2586.6937   -31781.115    2674.5168   -29106.598    606.10345     55.04153     55.04153     55.04153    606.10345    405.26497    1183.4833    229.56212    141.69659    1263.8245    897.12528    166752.17 
   13400     2587.144   -31778.844    2674.9824   -29103.861   -378.92004    55.056937    55.056937    55.056937   -378.92004   -32.763391   -815.87421   -288.12252    1519.3616    773.63183    2140.0066    166892.24 
   13500    2585.1996   -31776.903    2672.9721   -29103.931     370.9657    55.039792    55.039792    55.039792     370.9657   -509.47097    1058.7526    563.61549   -1417.2373   -2299.4052    72.513342    166736.37 
   13600    2596.7372   -31799.472    2684.9013   -29114.571   -251.90628    55.049261    55.049261    55.049261   -251.90628   -836.12918   -234.21563    314.62596    581.27635   -65.217068   -2309.2623    166822.44 
   13700    2558.8531   -31764.899     2645.731   -29119.168    151.47833     55.04811     55.04811     55.04811    151.47833   -457.32196    667.90046     243.8565    1888.1092     1336.831    465.42794    166811.98 
   13800    2593.9363   -31806.765    2682.0054    -29124.76    333.24683    55.033117    55.033117    55.033117    333.24683     133.5212    102.08127    764.13801   -1474.9716    255.91847    2381.7152    166675.72 
   13900    2576.1831   -31792.133    2663.6494   -29128.483   -1073.9666    55.054452    55.054452    55.054452   -1073.9666    -1811.627    -504.3254   -905.94751    1565.2933     1310.487   -927.64517    166869.64 
   14000     2559.721   -31774.867    2646.6284   -29128.239    411.19466    55.034706    55.034706    55.034706    411.19466    107.16584    570.40692    556.01121    1392.5266   -1153.8549   -694.36602    166690.15 
   14100    2562.1457   -31777.011    2649.1355   -29127.875   -203.79917    55.051244    55.051244    55.051244   -203.79917    389.29291   -490.58251   -510.10792   -2019.4013   -3523.1448    1060.8414    166840.47 
   14200    2586.0232   -31806.007    2673.8236   -29132.183    846.54152    55.025677    55.025677    55.025677    846.54152    798.35037    828.12735    913.14683     461.7357   -983.90607   -9.9971886    166608.13 
   14300    2560.9175   -31786.233    2647.8655   -29138.367   -598.61032    55.050491    55.050491    55.050491   -598.61032   -1043.1614   -79.887051   -672.78247   -435.28285    1787.3462    1264.7247    166833.62 
   14400    2559.5621   -31790.406    2646.4641   -29143.942    464.15268    55.031646    55.031646    55.031646    464.15268    211.82415    141.34122    1039.2927   -2226.1537    823.83253   -1356.7284    166662.36 
   14500     2535.132   -31767.079    2621.2045   -29145.874    417.44506    55.036088    55.036088    55.036088    417.44506    473.38453   -564.13615    1343.0868    520.10014   -761.01056    503.32699    166702.72 
   14600    2560.3388   -31787.149    2647.2671   -29139.882   -461.08123    55.052826    55.052826    55.052826   -461.08123    -596.5579   -792.06114    5.3753357    2797.0054    139.62548    547.34777    166854.85 
   14700    2565.4342   -31785.746    2652.5356    -29133.21    531.75951    55.031465    55.031465    55.031465    531.75951     642.3485   -73.195436    1026.1255    1819.1716   -332.27096   -2175.9511    166660.71 
   14800    2550.3412   -31765.295    2636.9302   -29128.365   -728.71642    55.059888    55.059888    55.059888   -728.71642   -279.19312   -535.32831   -1371.6278    -1450.548   -641.82076   -1326.7654    166919.08 
   14900    2569.3204   -31777.837    2656.5537   -29121.283    557.69388      55.0376      55.0376      55.0376    557.69388    1100.8964     60.39853    511.78674   -1145.7719    1183.6945    1526.9871    166716.45 
   15000    2593.4307   -31804.017    2681.4826   -29122.534    -358.5097    55.045226    55.045226    55.045226    -358.5097   -708.07819   -374.69502    7.2441209    1532.5476   -1366.1138    2199.1594    166785.77 
   15100    2622.8093   -31835.675    2711.8586   -29123.816   -280.77623    55.046341    55.046341    55.046341   -280.77623   -70.938698   -299.51648   -471.87351    653.92444   -503.00921   -398.72406     166795.9 
   15200     2601.531    -31815.15     2689.858   -29125.292    378.23878    55.035509    55.035509    55.035509    378.23878    547.15616    287.46356    300.09661   -33.676823   -1318.2137   -1429.3139    166697.45 
   15300    2598.2128   -31813.003    2686.4271   -29126.576   -493.48977    55.049707    55.049707    55.049707   -493.48977    32.614197   -1092.4687   -420.61478    1478.2441    6.5712615   -1480.8247     166826.5 
   15400    2555.5129   -31766.398    2642.2774   -29124.121    343.85941    55.034869    55.034869    55.034869    343.85941    212.51391    198.27835    620.78596   -608.80421    1969.9395    1575.9585    166691.63 
   15500    2605.0378   -31819.682    2693.4838   -29126.198   -455.86633    55.045934    55.045934    55.045934   -455.86633   -1187.8253   -6.6913348   -173.08236   -1430.0562    142.74454   -879.08653     166792.2 
   15600    2544.4586   -31763.396    2630.8478   -29132.548    345.89142    55.034142    55.034142    55.034142    345.89142    800.32422    114.43771    122.91233    244.02419   -237.72008     399.3332    166685.03 
   15700    2567.5408    -31789.89    2654.7137   -29135.176   -575.93237    55.047662    55.047662    55.047662   -575.93237   -1190.8609   -390.42412   -146.51213    385.76606    62.543854    2565.9994    166807.91 
   15800    2585.9022   -31811.396    2673.6984   -29137.698    387.53324     55.03297     55.03297     55.03297    387.53324    154.11645    192.43156    816.05172    366.34368   -1591.1865   -1058.2382    166674.38 
   15900    2568.9434   -31796.819    2656.1639   -29140.655   -304.57454    55.041959    55.041959    55.041959   -304.57454   -664.93715   -123.94481   -124.84167     1109.206     1167.707    -310.1933    166756.06 
   16000    2546.7493   -31778.925    2633.2163   -29145.709    326.04725    55.033039    55.033039    55.033039    326.04725    -79.87407   -34.448607    1092.4644    1629.1515   -1670.1505    1004.2959    166675.01 
   16100    2584.8726   -31812.996    2672.6339   -29140.362   -36.221193    55.047217    55.047217    55.047217   -36.221193   -356.21764    187.58883    59.965228   -980.60376    -1935.787    808.73902    166803.86 
   16200    2566.7723   -31780.852    2653.9191   -29126.933   -73.996633    55.048871    55.048871    55.048871   -73.996633    74.142884   -33.929454   -262.20333   -637.22947    260.35167   -972.97723     166818.9 
   16300    2552.0066    -31756.15     2638.652   -29117.498    552.18472    55.043163    55.043163    55.043163    552.18472    1046.8528    401.28071     208.4207   -783.22163    885.85247    396.09361    166767.01 
   16400     2570.695    -31775.16     2657.975   -29117.185   -282.28677    55.050042    55.050042    55.050042   -282.28677   -17.056748   -406.79858   -423.00499    2255.8285   -2437.9677   -835.59741    166829.55 
   16500    2571.8124   -31771.812    2659.1303   -29112.681   -32.934442    55.046946    55.046946    55.046946   -32.934442    93.677138   -311.99551    119.51505   -168.94799   -1997.2079    1871.4393     166801.4 
   16600    2591.2832   -31788.748    2679.2622   -29109.486   -465.25043    55.051879    55.051879    55.051879   -465.25043    288.97766   -947.49188   -737.23708   -2941.9303     1617.554    1696.4914    166846.25 
   16700    2566.0624   -31764.731    2653.1851   -29111.546    318.79309    55.044353    55.044353    55.044353    318.79309      393.661    75.485523    487.23274    -39.44753   -1034.0239   -2097.6721    166777.83 
   16800     2572.664   -31772.457    2660.0109   -29112.446   -1.2124427     55.04695     55.04695     55.04695   -1.2124427   -173.22363    447.81239   -278.22608    1633.2431    87.357817    2953.4821    166801.44 
   16900    2572.4793   -31778.112    2659.8199   -29118.292   -127.14697     55.04592     55.04592     55.04592   -127.14697   -18.349465    40.515301   -403.60674   -1501.9575   -30.826726    1034.4306    166792.07 
   17000    2566.6922   -31774.519    2653.8363   -29120.682    191.64195    55.045219    55.045219    55.045219    191.64195   -283.84686    1136.7145   -277.94183    122.16791   -1508.4209   -3061.9853     166785.7 
   17100    2573.6294     -31787.2     2661.009   -29126.191   -21.740648    55.042896    55.042896    55.042896   -21.740648    38.942863   -8.4743941   -95.690412    838.73176     600.1231    1687.7352    166764.58 
   17200    2556.1735   -31772.897    2642.9605   -29129.936    354.00884    55.037876    55.037876    55.037876    354.00884   -313.02872    781.05726    593.99797   -1738.7497   -60.083002    3598.3036    166718.96 
   17300    2588.4252   -31810.923    2676.3072   -29134.616    70.024634    55.038844    55.038844    55.038844    70.024634   -197.87888     235.1472    172.80558    291.00962    50.244795    -1690.303    166727.76 
   17400     2556.533   -31778.051    2643.3321   -29134.719   -75.814461    55.042732    55.042732    55.042732   -75.814461    135.68954   -554.29232    191.15941    1628.1261    2691.1047   -628.75213    166763.09 
   17500    2560.8287   -31778.357    2647.7737   -29130.584    328.39502    55.033256    55.033256    55.033256    328.39502    261.04275    106.14947    617.99285   -313.73649    -2882.211    795.19791    166676.98 
   17600    2600.5452   -31818.912    2688.8387   -29130.073   -492.80706    55.053179    55.053179    55.053179   -492.80706   -741.54531   -521.82196   -215.05392    -156.1606   -1254.2507   -1419.1307    166858.06 
   17700    2612.5133   -31824.848    2701.2131   -29123.635    636.31969    55.034243    55.034243    55.034243    636.31969    615.07892    511.23235    782.64782    2273.9357    4435.9227    969.22462    166685.95 
   17800    2566.8502    -31773.23    2653.9996    -29119.23   -588.31331    55.057557    55.057557    55.057557   -588.31331   -992.88079   -634.44201   -137.61712    555.44308   -1645.1201    763.70325    166897.88 
   17900    2600.3603   -31806.213    2688.6475   -29117.565    484.21172    55.032304    55.032304    55.032304    484.21172    1164.7147     83.17896    204.74147   -1917.1835    -1231.216   -2137.3697    166668.33 
   18000    2576.4456    -31783.96    2663.9208    -29120.04   -500.31925    55.051917    55.051917    55.051917   -500.31925   -649.38355   -141.63036   -709.94386    186.38496    1669.9731    -379.7313    166846.59 
   18100    2582.9297   -31790.112    2670.6251   -29119.487    256.99519    55.038033    55.038033    55.038033    256.99519    126.01847    786.15136   -141.18427    824.35558    414.61691    1028.3786    166720.39 
   18200    2575.0699   -31781.793    2662.4984   -29119.294   -246.18912    55.048447    55.048447    55.048447   -246.18912    2.2091074   -227.66324   -513.11324   -1419.1833   -1846.6498     706.6009    166815.04 
   18300    2563.0135   -31763.753    2650.0327    -29113.72   -43.110451    55.047512    55.047512    55.047512   -43.110451   -12.597258    456.45049   -573.18459   -1202.1807    1612.5048   -166.23433    166806.54 
   18400    2567.8307   -31773.249    2655.0134   -29118.235    205.51953    55.041947    55.041947    55.041947    205.51953    513.22081    191.06831   -87.730542    1069.7448   -1447.7175   -716.29553    166755.96 
   18500    2589.3914   -31798.753    2677.3061   -29121.447   -115.45144    55.047986    55.047986    55.047986   -115.45144    22.369131    94.390834    -463.1143    921.68654    615.66123   -715.82327    166810.85 
   18600    2581.7543   -31789.219    2669.4098   -29119.809     367.2453    55.045325    55.045325    55.045325     367.2453    268.68246   -238.99342    1072.0469   -1466.1313    1621.5192    1640.1486    166786.66 
   18700    2575.1014   -31781.628    2662.5309   -29119.097   -50.192345     55.04772     55.04772     55.04772   -50.192345    434.43546   -491.68766   -93.324842   -1411.9726   -317.92976   -16.633354    166808.43 
   18800    2592.9784   -31796.302     2681.015   -29115.287    30.718494    55.046834    55.046834    55.046834    30.718494    734.63929     246.8757   -889.35951    3076.8805   -639.41586   -328.73832    166800.38 
   18900    2556.7439   -31757.045    2643.5502   -29113.494    148.01338    55.048485    55.048485    55.048485    148.01338    210.88852    700.82355   -467.67193    -1326.458   -803.35453   -836.53579    166815.39 
   19000    2578.4002   -31775.919    2665.9418   -29109.977   -12.968547    55.048335    55.048335    55.048335   -12.968547     211.1446    158.00986    -408.0601   -1157.7469    1663.7454    564.61962    166814.02 
   19100    2579.3822   -31778.161    2666.9571   -29111.204    80.223793    55.044853    55.044853    55.044853    80.223793   -183.96106   -258.34808    682.98053      2042.44   -1048.8975    389.91849    166782.37 
   19200    2584.5004   -31785.672    2672.2491   -29113.423    -252.1946    55.049816    55.049816    55.049816    -252.1946   -473.02747   -34.746556   -248.80977    1263.7035    563.72519   -564.61944    166827.49 
   19300    2586.7904   -31783.484    2674.6169   -29108.867   -190.01187    55.048738    55.048738    55.048738   -190.01187   -468.33971   -247.93839    146.24249   -3074.4464    484.08059    890.57242    166817.69 
   19400    2572.9523     -31771.3    2660.3089   -29110.991    263.93405      55.0437      55.0437      55.0437    263.93405   -294.90316    896.35569    190.34963   -1527.2243    380.36641   -2362.6656     166771.9 
   19500    2537.9602   -31735.531    2624.1288   -29111.402   -371.34826    55.049965    55.049965    55.049965   -371.34826   -500.27186   -45.623975   -568.14895    2293.7861   -1783.9608    1053.0677    166828.84 
   19600    2556.8758   -31758.445    2643.6866   -29114.759     -24.1091    55.043037    55.043037    55.043037     -24.1091   -40.672541    195.77502   -227.42978    -1832.727    1002.5062    820.84661    166765.87 
   19700    2542.3429   -31745.697    2628.6603   -29117.036   -185.35412    55.049633    55.049633    55.049633   -185.35412   -751.27978   -315.05977    510.27718    1981.0187    56.143873   -1654.0342    166825.83 
   19800    2572.4764   -31775.713    2659.8169   -29115.896    688.17156    55.039108    55.039108    55.039108    688.17156    1297.3126    1049.8751   -282.67304    1384.5663    -2231.202    942.23896    166730.16 
   19900    2582.6632   -31788.891    2670.3495   -29118.542   -116.03032     55.05046     55.05046     55.05046   -116.03032    77.657692   -395.47525   -30.273393   -392.76387    470.28261    475.25746    166833.34 
   20000     2595.481   -31803.424    2683.6025   -29119.821    178.35687    55.039156    55.039156    55.039156    178.35687    363.63602   -397.13489    568.56947    2147.6557    2425.8503   -1424.8504    166730.59 
Loop time of 165.083 on 1 procs for 10000 steps with 8000 atoms

Performance: 5.234 ns/day, 4.586 hours/ns, 60.575 timesteps/s
97.5% CPU use with 1 MPI tasks x no OpenMP threads

MPI task timing breakdown:
Section |  min time  |  avg time  |  max time  |%varavg| %total
---------------------------------------------------------------
Pair    | 142.36     | 142.36     | 142.36     |   0.0 | 86.23
Neigh   | 13.96      | 13.96      | 13.96      |   0.0 |  8.46
Comm    | 0.79387    | 0.79387    | 0.79387    |   0.0 |  0.48
Output  | 0.011136   | 0.011136   | 0.011136   |   0.0 |  0.01
Modify  | 7.3542     | 7.3542     | 7.3542     |   0.0 |  4.45
Other   |            | 0.6066     |            |       |  0.37

Nlocal:    8000 ave 8000 max 8000 min
Histogram: 1 0 0 0 0 0 0 0 0 0
Nghost:    4995 ave 4995 max 4995 min
Histogram: 1 0 0 0 0 0 0 0 0 0
Neighs:    104985 ave 104985 max 104985 min
Histogram: 1 0 0 0 0 0 0 0 0 0
FullNghs:  209970 ave 209970 max 209970 min
Histogram: 1 0 0 0 0 0 0 0 0 0

Total # of neighbors = 209970
Ave neighs/atom = 26.2462
Neighbor list builds = 1354
Dangerous builds = 0
variable natoms equal "count(all)"
variable tot_energy equal "c_eatoms"
variable a11 equal "xhi-xlo"
variable a22 equal "yhi-ylo"
variable a33 equal "zhi-zlo"
variable tilt_xy equal "xy"
variable tilt_xz equal "xz"
variable tilt_yz equal "yz"
variable tot_press equal "press"
variable press_xx equal "pxx"
variable press_yy equal "pyy"
variable press_zz equal "pzz"
variable press_xy equal "pxy"
variable press_xz equal "pxz"
variable press_yz equal "pyz"

# ---- output ----
print "pypospack:output_section:begin"
pypospack:output_section:begin
print "num_atoms = ${natoms}"
num_atoms = 8000
print "a11 = ${a11}"
a11 = 55.0391560773181
print "a22 = ${a22}"
a22 = 55.0391560773181
print "a33 = ${a33}"
a33 = 55.0391560773181
print "a12 = ${tilt_xy}"
a12 = 0
print "a13 = ${tilt_xz}"
a13 = 0
print "a23 = ${tilt_yz}"
a23 = 0
print "tot_press = ${tot_press}"
tot_press = 178.35686768864
print "pxx = ${press_xx}"
pxx = 363.636020145747
print "pyy = ${press_yy}"
pyy = -397.13488927505
print "pzz = ${press_zz}"
pzz = 568.569472195202
print "pxy = ${press_xy}"
pxy = 2147.65574150493
print "pxz = ${press_xz}"
pxz = 2425.85030577115
print "pyz = ${press_yz}"
pyz = -1424.85038909338
print "pypospack:output_section:done"
pypospack:output_section:done
print "pypospack:lammps_sim:done"
pypospack:lammps_sim:done
Total wall time: 0:05:08
