LAMMPS (11 Aug 2017)
# ---- initialize simulations
clear
units metal
dimension 3
boundary p p p
atom_style atomic
atom_modify map array
# ---- create atoms
read_data /home/eragasa/repos/pypospack/examples/Ni__eam__born_exp_rose/preconditioning_3.5NN/rank_54/Ni_fcc.lmps_min_all/lammps.structure
  triclinic box = (0 0 0) to (3.5167 3.5167 3.5167) with tilt (0 -0 0)
  1 by 1 by 1 MPI processor grid
  reading atoms ...
  4 atoms
# ---- define interatomic potential
include potential.mod
mass 1 58.6934

group Ni type 1
4 atoms in group Ni

pair_style eam/alloy
pair_coeff * * /home/eragasa/repos/pypospack/examples/Ni__eam__born_exp_rose/preconditioning_3.5NN/rank_54/Ni_fcc.lmps_min_all/Ni.eam.alloy Ni

neighbor 1.0 bin
neigh_modify every 1 delay 0 check yes
# ---- define settings
compute eng all pe/atom
compute eatoms all reduce sum c_eng
# ---- run minimization
reset_timestep 0
fix 1 all box/relax aniso 0.0 vmax 0.001
thermo 10
thermo_style custom step pe xhi xlo yhi ylo zhi xy xz yz press pxx pyy pzz pxy pxz pyz c_eatoms
min_style cg
minimize 1e-25 1e-25 5000 10000
Neighbor list info ...
  update every 1 steps, delay 0 steps, check yes
  max neighbors/atom: 2000, page size: 100000
  master list distance cutoff = 5.64464
  ghost atom cutoff = 5.64464
  binsize = 2.82232, bins = 2 2 2
  1 neighbor lists, perpetual/occasional/extra = 1 0 0
  (1) pair eam/alloy, perpetual
      attributes: half, newton on
      pair build: half/bin/newton/tri
      stencil: half/bin/3d/newton/tri
      bin: standard
Per MPI rank memory allocation (min/avg/max) = 4.211 | 4.211 | 4.211 Mbytes
Step PotEng Xhi Xlo Yhi Ylo Zhi Xy Xz Yz Press Pxx Pyy Pzz Pxy Pxz Pyz c_eatoms 
       0   -17.842012       3.5167            0       3.5167            0       3.5167            0           -0            0    12166.434    12166.434    12166.434    12166.434 -2.0705211e-11 -1.8660252e-11 1.0224796e-12   -17.842012 
      10   -22.116017    3.5329562 -0.016256185    3.5329562 -0.016256185    3.5329562            0           -0            0    81395.599    81395.599    81395.599    81395.599 -1.3075001e-07 -1.5140689e-07 -1.4575486e-07   -22.116017 
      20   -23.977407    3.5505397 -0.033839685    3.5505397 -0.033839685    3.5505397            0           -0            0    88917.276    88917.276    88917.276    88917.276 -1.5077743e-07 -1.7279203e-07 -1.6674514e-07   -23.977407 
      30   -25.338363    3.5681232 -0.051423185    3.5681232 -0.051423185    3.5681232            0           -0            0    86247.245    86247.245    86247.245    86247.245 -9.5656693e-08 -1.0833469e-07 -1.0474794e-07   -25.338363 
      40   -26.596706    3.5857067 -0.069006685    3.5857067 -0.069006685    3.5857067            0           -0            0    89827.463    89827.463    89827.463    89827.463 -1.2821101e-07 -1.4663924e-07 -1.4002474e-07   -26.596706 
      50   -27.672942    3.6032902 -0.086590185    3.6032902 -0.086590185    3.6032902            0           -0            0    92438.137    92438.137    92438.137    92438.137 -2.6813648e-07 -3.0782435e-07 -2.9589657e-07   -27.672942 
      60   -28.574063    3.6208737  -0.10417368    3.6208737  -0.10417368    3.6208737            0           -0            0    94789.063    94789.063    94789.063    94789.063 -1.9989509e-07 -2.3010851e-07 -2.2310521e-07   -28.574063 
      70   -29.328622    3.6384572  -0.12175718    3.6384572  -0.12175718    3.6384572            0           -0            0    95184.834    95184.834    95184.834    95184.834 -4.7742675e-07 -5.5442896e-07 -5.3431543e-07   -29.328622 
      80   -29.963975    3.6560407  -0.13934068    3.6560407  -0.13934068    3.6560407            0           -0            0    93593.167    93593.167    93593.167    93593.167 -2.1725747e-07 -2.5200595e-07 -2.4352319e-07   -29.963975 
      90   -30.508124    3.6736242  -0.15692418    3.6736242  -0.15692418    3.6736242            0           -0            0    92094.845    92094.845    92094.845    92094.845 -2.9049999e-07 -3.3750663e-07 -3.2786624e-07   -30.508124 
     100   -30.978717    3.6912077  -0.17450768    3.6912077  -0.17450768    3.6912077            0           -0            0    89439.707    89439.707    89439.707    89439.707 -1.8886126e-07 -2.189792e-07 -2.1312189e-07   -30.978717 
     110   -31.389143    3.7087912  -0.19209118    3.7087912  -0.19209118    3.7087912            0           -0            0    85536.548    85536.548    85536.548    85536.548 3.0570718e-07 3.5648045e-07 3.4626403e-07   -31.389143 
     120   -31.753523    3.7263747  -0.20967468    3.7263747  -0.20967468    3.7263747            0           -0            0    80236.053    80236.053    80236.053    80236.053 -4.767777e-07 -5.5670178e-07 -5.410033e-07   -31.753523 
     130    -32.07647    3.7439582  -0.22725818    3.7439582  -0.22725818    3.7439582            0           -0            0    76293.573    76293.573    76293.573    76293.573 -3.0032416e-07 -3.496234e-07 -3.4107607e-07    -32.07647 
     140   -32.364085    3.7615417  -0.24484168    3.7615417  -0.24484168    3.7615417            0           -0            0    72514.916    72514.916    72514.916    72514.916 -3.1618628e-07 -3.6921252e-07 -3.5992432e-07   -32.364085 
     150   -32.620955    3.7791252  -0.26242518    3.7791252  -0.26242518    3.7791252            0           -0            0    66589.083    66589.083    66589.083    66589.083 -4.7309723e-07 -5.5393564e-07 -5.3755533e-07   -32.620955 
     160   -32.852551    3.7967087  -0.28000868    3.7967087  -0.28000868    3.7967087            0           -0            0    62706.556    62706.556    62706.556    62706.556 1.6692528e-07 1.9527588e-07 1.8957548e-07   -32.852551 
     170   -33.061315    3.8142922  -0.29759218    3.8142922  -0.29759218    3.8142922            0           -0            0    58094.855    58094.855    58094.855    58094.855 -6.2608103e-07 -7.3304188e-07 -7.1139451e-07   -33.061315 
     180   -33.249432    3.8318757  -0.31517568    3.8318757  -0.31517568    3.8318757            0           -0            0    53752.456    53752.456    53752.456    53752.456 -3.3559392e-07 -3.9181396e-07 -3.8138625e-07   -33.249432 
     190   -33.420062    3.8494592  -0.33275918    3.8494592  -0.33275918    3.8494592            0           -0            0    49292.205    49292.205    49292.205    49292.205 -3.5919282e-07 -4.1997289e-07 -4.0863564e-07   -33.420062 
     200   -33.574954    3.8670427  -0.35034268    3.8670427  -0.35034268    3.8670427            0           -0            0    45706.437    45706.437    45706.437    45706.437 3.1111744e-07 3.6324786e-07 3.5335682e-07   -33.574954 
     210    -33.71541    3.8846262  -0.36792618    3.8846262  -0.36792618    3.8846262            0           -0            0     42284.94     42284.94     42284.94     42284.94 -1.2863128e-06 -1.5016915e-06 -1.4609671e-06    -33.71541 
     220    -33.84241    3.9022097  -0.38550968    3.9022097  -0.38550968    3.9022097            0           -0            0    38859.139    38859.139    38859.139    38859.139 4.4574175e-07  5.19862e-07 5.0618427e-07    -33.84241 
     230   -33.957484    3.9197932  -0.40309318    3.9197932  -0.40309318    3.9197932            0           -0            0    35611.174    35611.174    35611.174    35611.174 -2.3971341e-06 -2.7983885e-06 -2.7243957e-06   -33.957484 
     240   -34.062123    3.9373767  -0.42067668    3.9373767  -0.42067668    3.9373767            0           -0            0    32558.476    32558.476    32558.476    32558.476 -1.8566393e-06 -2.1655743e-06 -2.107734e-06   -34.062123 
     250   -34.157355    3.9549602  -0.43826018    3.9549602  -0.43826018    3.9549602            0           -0            0    29732.567    29732.567    29732.567    29732.567 -1.983303e-06 -2.311857e-06 -2.2498493e-06   -34.157355 
     260   -34.243741    3.9725437  -0.45584368    3.9725437  -0.45584368    3.9725437            0           -0            0    27339.824    27339.824    27339.824    27339.824 -1.5021748e-06 -1.7511209e-06 -1.7041599e-06   -34.243741 
     270   -34.322334    3.9901272  -0.47342718    3.9901272  -0.47342718    3.9901272            0           -0            0    25213.394    25213.394    25213.394    25213.394 -1.4326167e-06 -1.6700247e-06 -1.6255154e-06   -34.322334 
     280    -34.39361    4.0077107  -0.49101068    4.0077107  -0.49101068    4.0077107            0           -0            0     22530.04     22530.04     22530.04     22530.04 -1.0129669e-05 -1.1809311e-05 -1.1494271e-05    -34.39361 
     290   -34.458514    4.0252942  -0.50859418    4.0252942  -0.50859418    4.0252942            0           -0            0    20888.761    20888.761    20888.761    20888.761 -1.13198e-05 -1.3195717e-05 -1.2843593e-05   -34.458514 
     300   -34.517213    4.0428777  -0.52617768    4.0428777  -0.52617768    4.0428777            0           -0            0    18909.724    18909.724    18909.724    18909.724 -4.8833781e-06 -5.6930546e-06 -5.541116e-06   -34.517213 
     310   -34.570418    4.0604612  -0.54376118    4.0604612  -0.54376118    4.0604612            0           -0            0    17033.499    17033.499    17033.499    17033.499 -5.2333386e-06 -6.1006676e-06 -5.9386787e-06   -34.570418 
     320   -34.618951    4.0780447  -0.56134468    4.0780447  -0.56134468    4.0780447            0           -0            0    15524.537    15524.537    15524.538    15524.537 -4.2072965e-06 -4.904572e-06 -4.7743605e-06   -34.618951 
     330   -34.663192    4.0956282  -0.57892818    4.0956282  -0.57892818    4.0956282            0           -0            0     14461.63     14461.63    14461.631     14461.63 -1.2322742e-05 -1.4365604e-05 -1.3984578e-05   -34.663192 
     340   -34.703831    4.1132117  -0.59651168    4.1132117  -0.59651168    4.1132117            0           -0            0    13202.246    13202.246    13202.248    13202.244 -2.1733704e-05 -2.533661e-05 -2.4664304e-05   -34.703831 
     350   -34.740965    4.1307952  -0.61409518    4.1307952  -0.61409518    4.1307952            0           -0            0    11888.253    11888.252    11888.258     11888.25 -9.9625203e-05 -0.00011613889 -0.00011305813   -34.740965 
     360   -34.775027    4.1483787  -0.63167866    4.1483787  -0.63167868    4.1483787            0           -0            0    11063.066    11063.064    11063.077    11063.057 -6.1635425e-05 -7.1851618e-05 -6.9945535e-05   -34.775027 
     370   -34.806571    4.1659621  -0.64926213    4.1659622  -0.64926218    4.1659621            0           -0            0    9885.7226    9885.7169    9885.7517    9885.6993 -0.00012650744 -0.00014747694 -0.00014356375   -34.806571 
     380   -34.834985    4.1835455  -0.66684552    4.1835457  -0.66684568    4.1835454            0           -0            0    9071.5155    9071.4994     9071.597    9071.4501 -0.00018846182 -0.0002196993 -0.00021386997   -34.834985 
     390   -34.861383    4.2011287  -0.68442868    4.2011292  -0.68442918    4.2011284            0           -0            0    8332.3053    8332.2558     8332.556    8332.1042 -0.00019285248 -0.000224818 -0.00021885246   -34.861383 
     400    -34.88533     4.218711  -0.70201098    4.2187127  -0.70201268    4.2187101            0           -0            0    7578.6979    7578.5337    7579.5282    7578.0316 -0.00025682622 -0.00029939528 -0.00029145064    -34.88533 
     410   -34.907083    4.2362899  -0.71958991    4.2362962  -0.71959618    4.2362867            0           -0            0    6792.9075    6792.3163    6795.8976    6790.5086 -0.0017721335 -0.002066014 -0.002011091   -34.907083 
     420   -34.927157    4.2538538  -0.73715383    4.2538797  -0.73717968    4.2538408            0           -0            0    6379.4647    6377.0798    6391.5218    6369.7926 -0.0017432854 -0.002032506 -0.001978392   -34.927157 
     430   -34.945141     4.271347  -0.75464698    4.2714632  -0.75476318    4.2712884            0           -0            0     5588.969    5578.4515     5642.036    5546.4194 -0.0024386242 -0.0028457926 -0.0027683359   -34.945141 
     440   -34.961346    4.2884682  -0.77176824    4.2890467  -0.77234668    4.2881776            0           -0            0    4951.5102    4899.6575    5210.5458    4744.3272 -0.0055806746 -0.0065488574 -0.0063470809   -34.961346 
     450   -34.975001     4.303789  -0.78708903    4.3066302  -0.78993018    4.3023866            0           -0            0    4638.8621    4376.5088    5890.0792    3649.9982 -0.0034561707 -0.0039704408 -0.0039049381   -34.975001 
     460   -34.986255    4.3140094  -0.79730937    4.3242137  -0.80751368    4.3092573            0           -0            0    4353.1004    3288.4289    8813.1049    957.76722 -0.0046265223 -0.0049986667 -0.0051523753   -34.986255 
     470   -35.001214    4.3181019  -0.80140188    4.3417972  -0.82509718      4.30816            0           -0            0    4198.6434     1238.403    14595.397   -3237.8697 -0.0086692305 -0.0099171712 -0.0099323164   -35.001214 
     480   -35.027382    4.3181713  -0.80147134    4.3593807  -0.84268068    4.3029644            0           -0            0    4373.8622   -1706.0371    22657.738   -7830.1138 -0.00041437158  0.010800482 0.0013182013   -35.027382 
     490   -35.068858    4.3159577  -0.79925767    4.3769642  -0.86026418    4.2962921            0           -0            0     4605.023   -5672.7313    32085.968   -12598.168 -0.013250441 -0.016002728 -0.016231889   -35.068858 
     500   -35.128227    4.3122185  -0.79551847    4.3945477  -0.87784768    4.2890338            0           -0            0     5244.003   -10124.136    42944.583   -17088.438 -0.024833907  -0.05917689 -0.033838357   -35.128227 
     510   -35.206879    4.3075024  -0.79080237    4.4121312  -0.89543118     4.281665            0           -0            0    5859.9939   -15286.343    54580.829   -21714.505  -0.01501375 -0.018491518  -0.01988039   -35.206879 
     520   -35.305894    4.3020956  -0.78539559    4.4297147  -0.91301468    4.2743236            0           -0            0    6717.4269   -20699.467    67054.359   -26202.612 -0.013199187 -0.0051499866 -0.017830207   -35.305894 
     530    -35.42565    4.2962401  -0.77954012    4.4472982  -0.93059818    4.2671096            0           -0            0    8000.4855   -25968.159    80287.907   -30318.291 -0.010925061  0.018630598 -0.015011139    -35.42565 
     540   -35.566246    4.2900787  -0.77337867    4.4648817  -0.94818168    4.2600396            0           -0            0    9291.0845   -31386.841    93733.202   -34473.107 -0.0090725695  0.045940208 -0.012804881   -35.566246 
     550   -35.727376    4.2837121  -0.76701209    4.4824652  -0.96576518    4.2531123            0           -0            0    10946.968   -36410.778    107470.18   -38218.495 0.0096988471   0.39863772  0.017199049   -35.727376 
     560   -35.908096    4.2772474  -0.76054743    4.5000487  -0.98334868    4.2463538            0           -0            0    12702.489   -41193.435    121068.89   -41767.983 -0.0038646327   0.15183572 -0.0058629615   -35.908096 
     570   -36.107316    4.2707389  -0.75403892    4.5176322   -1.0009322    4.2397542            0           -0            0    14828.804   -45297.549    134521.62   -44737.659 -0.026196751  -0.57170652 -0.043368478   -36.107316 
     580   -36.323541    4.2642409  -0.74754092    4.5352157   -1.0185157     4.233318            0           -0            0    16976.227   -49028.808     147406.5   -47449.009 -0.0053106454  0.058797635 -0.0096628529   -36.323541 
     590   -36.555089    4.2577869  -0.74108691    4.5527992   -1.0360992    4.2270403            0           -0            0    19376.334   -52020.975    159711.47    -49561.49 -0.004412421  0.016094519 -0.0087295139   -36.555089 
     600    -36.80011    4.2514034  -0.73470345    4.5703827   -1.0536827    4.2209179            0           -0            0     21760.77   -54537.685     171152.2   -51332.205 -0.00092033342   0.13363541 -0.0035025016    -36.80011 
     610   -37.056462     4.245128  -0.72842796    4.5879662   -1.0712662    4.2149647            0           -0            0    24211.862   -56420.997    181664.06   -52607.474 0.00045611901   0.12380834 -0.0016450382   -37.056462 
     620   -37.321976    4.2389885  -0.72228847    4.6055497   -1.0888497    4.2091904            0           -0            0    26813.943   -57520.351    191199.96   -53237.777 0.00092902731 0.0047672469 -0.0012142997   -37.321976 
     630    -37.59468    4.2329915  -0.71629151    4.6231332   -1.1064332    4.2035881            0           -0            0    29360.945   -58089.028     199627.2   -53455.341 0.0033198564   0.13874935 0.0023987054    -37.59468 
     640   -37.872536    4.2271521  -0.71045212    4.6407167   -1.1240167    4.1981621            0           -0            0    31924.295    -58028.06    206956.62   -53155.677 0.0030356882  -0.16340249 0.0018047001   -37.872536 
     650   -38.153467    4.2214969  -0.70479695    4.6583002   -1.1416002    4.1929301            0           -0            0    34600.658   -57203.105     213206.2    -52201.12 0.0059129702   0.24435748 0.0063220696   -38.153467 
     660   -38.435721    4.2160314  -0.69933137    4.6758837   -1.1591837    4.1878914            0           -0            0    36975.075   -56202.127    218265.85   -51138.493 0.0067390916   0.27428674 0.0075681983   -38.435721 
     670    -38.71774    4.2107564  -0.69405642    4.6934672   -1.1767672    4.1830424            0           -0            0    39466.964   -54476.241    222314.77   -49437.639 0.0071775777   0.16087367 0.0082263853    -38.71774 
     680   -38.997855    4.2057009  -0.68900088    4.7110507   -1.1943507    4.1784072            0           -0            0    41664.145   -52623.133    225271.26    -47655.69 0.0068749706  -0.24536582 0.0077658687   -38.997855 
     690   -39.274983    4.2008505  -0.68415052    4.7286342   -1.2119342    4.1739698            0           -0            0    44010.109   -50060.614    227324.47   -45233.527 0.0078990784  0.060689665 0.0094270997   -39.274983 
     700   -39.547854    4.1962303  -0.67953033    4.7462177   -1.2295177     4.169752            0           -0            0    45855.649   -47745.021    228381.05   -43069.083 0.0084126426   0.23052277  0.010281707   -39.547854 
     710   -39.815555    4.1918443  -0.67514434    4.7638012   -1.2471012    4.1657564            0           -0            0    47620.621   -45119.109     228610.2   -40629.221 0.0084606774   0.20225003  0.010426572   -39.815555 
     720   -40.077544    4.1876743  -0.67097425    4.7813847   -1.2646847    4.1619645            0           -0            0    49554.154   -41864.818    228135.46   -37608.182 0.0084676446   0.24131729  0.010527613   -40.077544 
     730   -40.332953    4.1837573  -0.66705726    4.7989682   -1.2822682    4.1584113            0           -0            0    50862.529   -39166.193    226875.63   -35121.846 0.0083865194   0.20152662  0.010491503   -40.332953 
     740   -40.581534    4.1800717  -0.66337174    4.8165517   -1.2998517    4.1550757            0           -0            0    51812.693   -36686.847    224973.77   -32848.847 0.0080024333   -0.1673303 0.0099880104   -40.581534 
     750   -40.823048    4.1766127  -0.65991274    4.8341352   -1.3174352    4.1519527            0           -0            0    53382.291   -33018.515    222619.68   -29454.294 0.0079878701   0.18006968  0.010080157   -40.823048 
     760   -41.057134    4.1733997  -0.65669971    4.8517187   -1.3350187    4.1490609            0           -0            0    54286.138   -30087.548     219704.5   -26758.542 0.0076642138  0.083815955 0.0096870625   -41.057134 
     770     -41.2838    4.1704185  -0.65371855    4.8693022   -1.3526022    4.1463868            0           -0            0    55026.226   -27189.189    216361.21    -24093.34 0.0074236868   0.38199545 0.0094215856     -41.2838 
     780   -41.503166    4.1676441  -0.65094409    4.8868857   -1.3701857    4.1439064            0           -0            0    55686.929   -24233.447    212666.58   -21372.343 0.0070662465   0.10805277 0.0089792774   -41.503166 
     790   -41.715178    4.1650981  -0.64839813    4.9044692   -1.3877692    4.1416406            0           -0            0    55503.082   -22389.283    208600.12   -19701.588 0.0068101867   0.38481842 0.0086757879   -41.715178 
     800   -41.919983    4.1627592  -0.64605923    4.9220527   -1.4053527    4.1395693            0           -0            0    55597.679   -20002.436    204309.76   -17514.289 0.0064637312    0.1734367 0.0082427366   -41.919983 
     810   -42.117724    4.1606169   -0.6439169    4.9396362   -1.4229362    4.1376826            0           -0            0    55439.568   -17894.318     199800.9   -15587.873 0.0061307372  0.062543933 0.0078251688   -42.117724 
     820   -42.308562    4.1586634  -0.64196342    4.9572197   -1.4405197    4.1359732            0           -0            0    55696.084    -15076.95    195151.15    -12985.95 0.0057773977   0.22688814 0.0073853032   -42.308562 
     830    -42.49256    4.1569144  -0.64021439    4.9748032   -1.4581032    4.1344564            0           -0            0     54767.58   -13984.079    190301.63   -12014.808 0.0054555947  -0.29484215 0.0069692534    -42.49256 
     840   -42.669985    4.1553501  -0.63865012    4.9923867   -1.4756867    4.1331135            0           -0            0    54541.444   -11778.114    185387.56   -9985.1117 0.0051546958   0.22847299 0.0065964895   -42.669985 
     850   -42.840995    4.1539642  -0.63726417    5.0099702   -1.4932702    4.1319387            0           -0            0    53726.285   -10431.934    180377.89   -8767.1025 0.0048603957   0.11763833 0.0062211838   -42.840995 
     860   -43.005886    4.1527215  -0.63602154    5.0275537   -1.5108537    4.1308986            0           -0            0    53633.681   -7971.3026    175360.96   -6488.6176 0.0045192675   0.17209532 0.0057885948   -43.005886 
     870   -43.164684    4.1516672  -0.63496722    5.0451372   -1.5284372    4.1300366            0           -0            0    52253.609   -7455.6285    170268.28   -6051.8289  0.004275275  0.059395208 0.0054748213   -43.164684 
     880   -43.317749    4.1507359  -0.63403591    5.0627207   -1.5460207    4.1292903            0           -0            0    51335.137   -6245.2846    165203.67   -4952.9722 0.0039977101 -0.040947172 0.0051181241   -43.317749 
     890   -43.465198    4.1499385  -0.63323845    5.0803042   -1.5636042    4.1286703            0           -0            0    50591.638   -4780.5689    160165.11   -3609.6335 0.0037319391  0.055804193  0.004779782   -43.465198 
     900   -43.607179    4.1492879  -0.63258792    5.0978877   -1.5811877    4.1281893            0           -0            0    49674.779   -3599.0871    155155.86   -2532.4307 0.0034581483   0.10848086 0.0044560452   -43.607179 
     910   -43.743881    4.1487657  -0.63206569    5.1154712   -1.5987712    4.1278296            0           -0            0    48202.116   -3320.1437    150236.33   -2309.8366 0.0032605894  0.049286245 0.0041737827   -43.743881 
     920   -43.875553    4.1483234   -0.6316234    5.1330547   -1.6163547    4.1275451            0           -0            0    47563.024   -1810.6255    145415.21   -915.50826 0.0030098884  0.030244878 0.0038529216   -43.875553 
     930   -44.002252    4.1480068  -0.63130677    5.1506382   -1.6339382    4.1273797            0           -0            0    45904.742   -1894.4801     140641.1   -1032.3891 0.0028472815  0.044274078 0.0036426436   -44.002252 
     940   -44.124204    4.1477764   -0.6310764    5.1682217   -1.6515217    4.1272959            0           -0            0    45067.453   -766.10459     135963.8    4.6595988 0.0026330039  0.053064624 0.0033680947   -44.124204 
     950   -44.241517    4.1476549  -0.63095495    5.1858052   -1.6691052    4.1273154            0           -0            0    44009.399   -18.537104    131364.69    682.04602 0.0024444906  0.025060696 0.0031258846   -44.241517 
     960   -44.354376    4.1476164  -0.63091638    5.2033887   -1.6866887    4.1274136            0           -0            0     43039.85    815.59424    126860.19     1443.764  0.002260472  0.021178908 0.0028897613   -44.354376 
     970   -44.462932    4.1476661  -0.63096615    5.2209722   -1.7042722    4.1275957            0           -0            0    41608.754      892.551    122446.24    1487.4683 0.0021218502  0.049917822 0.0027110136   -44.462932 
     980   -44.567332    4.1477862   -0.6310862    5.2385557   -1.7218557    4.1278447            0           -0            0    40314.206    1125.0111    118136.95    1680.6548 0.0019807511 0.0059272754 0.0025291188   -44.567332 
     990   -44.667717    4.1479622  -0.63126224    5.2561392   -1.7394392    4.1281468            0           -0            0    39250.799    1655.6859    113937.65    2159.0657 0.0018334076 7.2199362e-05 0.0023398788   -44.667717 
    1000    -44.76422    4.1482101  -0.63151007    5.2737227   -1.7570227    4.1285174            0           -0            0    37534.785    1131.0216    109838.33    1635.0054 0.0017428547 0.0021336873 0.0022221525    -44.76422 
    1010   -44.856969    4.1485089  -0.63180891    5.2913062   -1.7746062    4.1289367            0           -0            0    36361.914    1382.0491     105853.5    1850.1976 0.0016218495 -0.0008705062 0.0020665301   -44.856969 
    1020   -44.946054     4.148927  -0.63222701    5.3088897   -1.7921897    4.1294703            0           -0            0    34818.704    1015.4215    101961.82     1478.871 0.0015359199 0.0034880035 0.0019551972   -44.946054 
    1030   -45.031679    4.1493402  -0.63264017    5.3264732   -1.8097732     4.129999            0           -0            0    34270.956    2112.8773    98197.769    2502.2226 0.0013889533 0.0035412939 0.0017677083   -45.031679 
    1040   -45.113933    4.1498039  -0.63310387    5.3440567   -1.8273567    4.1305763            0           -0            0    32618.983    1459.7302    94536.841    1860.3765   0.00132672 0.00031440272 0.0016865158   -45.113933 
    1050   -45.192886    4.1503973  -0.63369727    5.3616402   -1.8449402    4.1312782            0           -0            0    32157.245     2584.921    90974.149    2912.6638 0.0011907475 0.00082091006 0.0015133426   -45.192886 
    1060   -45.268753    4.1509509  -0.63425089    5.3792237   -1.8625237    4.1319422            0           -0            0    30707.583    2129.9832    87531.316    2461.4513  0.001129927 0.0029556093 0.0014344392   -45.268753 
    1070   -45.341538    4.1516331  -0.63493313    5.3968072   -1.8801072      4.13273            0           -0            0    29813.073    2479.7354    84182.028    2777.4569 0.0010387596 0.0019974818 0.0013178092   -45.341538 
    1080   -45.411458    4.1522631  -0.63556313    5.4143907   -1.8976907    4.1334681            0           -0            0     28380.36    1940.7808    80952.469    2247.8292 0.00099029306 -0.00083828689 0.0012547801   -45.411458 
    1090   -45.478518      4.15303  -0.63632995    5.4319742   -1.9152742     4.134338            0           -0            0    27727.475    2553.4786    77812.851     2816.095 0.00089705895 0.00057891777 0.0011359867   -45.478518 
    1100   -45.542906    4.1537592  -0.63705924    5.4495577   -1.9328577    4.1351725            0           -0            0    26301.215    1920.3416    74785.161    2198.1424 0.00086064777 0.00069086019 0.0010884409   -45.542906 
    1110   -45.604647    4.1546293   -0.6379293    5.4671412   -1.9504412    4.1361428            0           -0            0    25786.306    2642.4418    71844.173    2872.3048 0.00077136284 0.00013638745 0.0009749562   -45.604647 
    1120   -45.663845    4.1556616  -0.63896164    5.4847247   -1.9680247    4.1372698            0           -0            0    24647.868    2365.4265    68983.203     2594.975 0.00072766035 -0.00019080511 0.0009186604   -45.663845 
    1130   -45.720701    4.1564514  -0.63975135    5.5023082   -1.9856082    4.1381647            0           -0            0    23718.153    2339.5262    66257.282    2557.6519 0.00067651888 6.7992331e-07 0.0008531743   -45.720701 
    1140   -45.775188    4.1573931   -0.6406931    5.5198917   -2.0031917    4.1392064            0           -0            0    22912.337    2463.7347    63609.268     2664.009 0.00062278873 3.086844e-07 0.00078461564   -45.775188 
    1150   -45.827405    4.1585244  -0.64182436    5.5374752   -2.0207752    4.1404313            0           -0            0    22135.245    2594.4668     61034.13    2777.1389 0.00057219399 3.4889988e-07 0.0007201288   -45.827405 
    1160   -45.877489    4.1596356  -0.64293556    5.5550587   -2.0383587     4.141638            0           -0            0    20580.366    1481.3861    58555.063    1704.6485 0.00057350514 7.598719e-07 0.00072063579   -45.877489 
    1170    -45.92553    4.1605972   -0.6438972    5.5726422   -2.0559422    4.1427022            0           -0            0    20183.975     2091.049    56185.303    2275.5718 0.0005092172 7.2948173e-07 0.00063923388    -45.92553 
    1180   -45.971536    4.1618032  -0.64510323    5.5902257   -2.0735257    4.1440003            0           -0            0    19676.755    2501.1425    53884.875    2644.2462 0.00042908336 3.7149285e-07 0.00052927542   -45.971536 
    1190    -46.01563     4.163132  -0.64643198    5.6078092   -2.0911092    4.1454136            0           -0            0    18929.453    2490.4495    51671.897    2626.0117 0.00039604377 2.9737378e-07 0.00049506329    -46.01563 
    1200   -46.057899    4.1645119  -0.64781185    5.6253927   -2.1086927    4.1468779            0           -0            0    18214.632    2488.4991    49538.978    2616.4195 0.00036487355 7.0716186e-07 0.00045541072   -46.057899 
    1210   -46.098496    4.1656425   -0.6489425    5.6429762   -2.1262762    4.1481046            0           -0            0    17290.893    2112.0294    47510.817    2249.8333 0.00034935475 2.1439703e-07 0.00043535897   -46.098496 
    1220   -46.137349    4.1670679  -0.65036786    5.6605597   -2.1438597    4.1496168            0           -0            0    16834.896    2426.6565    45535.081    2542.9518 0.00031031549 3.1126181e-07 0.00038602513   -46.137349 
    1230    -46.17458    4.1686089  -0.65190893    5.6781432   -2.1614432    4.1512423            0           -0            0    16180.716    2402.4039    43626.798    2512.9461 0.00028577334 2.2530292e-07 0.0003548756    -46.17458 
    1240   -46.210274    4.1700917   -0.6533917    5.6957267   -2.1790267    4.1528141            0           -0            0     15549.94    2373.1032    41798.314    2478.4043 0.00026298746 8.1154065e-09 0.00032597215   -46.210274 
    1250   -46.244519    4.1714704  -0.65477042    5.7133102   -2.1966102    4.1542881            0           -0            0    14670.115    1920.6149    40049.599    2040.1307 0.00025670998 1.1919522e-07 0.0003177284   -46.244519 
    1260   -46.277303    4.1730888  -0.65638881    5.7308937   -2.2141937    4.1559951            0           -0            0    14361.588    2318.3193    38352.752    2413.6922 0.00022182352 2.5272256e-07 0.00027382912   -46.277303 
    1270   -46.308705     4.174867  -0.65816704    5.7484772   -2.2317772    4.1578582            0           -0            0    13796.053    2292.4284    36712.697    2383.0323 0.0002034994 2.3816874e-07 0.00025066688   -46.308705 
    1280    -46.33879    4.1767083  -0.66000834    5.7660607   -2.2493607    4.1597846            0           -0            0    13248.542    2262.3004    35134.808    2348.5182 0.00018661722 2.2815805e-07 0.00022934853    -46.33879 
    1290   -46.367611    4.1786137  -0.66191369    5.7836442   -2.2669442    4.1617753            0           -0            0    12720.688    2231.4718    33617.077    2313.5145 0.00017096743 2.2174365e-07 0.00020960856   -46.367611 
    1300   -46.395219    4.1805847  -0.66388466    5.8012277   -2.2845277    4.1638319            0           -0            0    12212.894    2201.5905    32157.507    2279.5837 0.00015641466 2.2090487e-07 0.00019127372   -46.395219 
    1310   -46.421664     4.182617  -0.66591696    5.8188112   -2.3021112    4.1659502            0           -0            0    11719.153    2164.2733    30754.476    2238.7092 0.00014316011 2.1224489e-07  0.000174592   -46.421664 
    1320   -46.447049     4.184416    -0.667716    5.8363947   -2.3196947    4.1678471            0           -0            0    11117.306     1924.952    29421.893    2005.0733 0.00013733368 6.0299973e-07 0.00016719219   -46.447049 
    1330   -46.471328    4.1864723  -0.66977227    5.8539782   -2.3372782    4.1699944            0           -0            0    10801.828    2103.7352    28130.778    2170.9719 0.00011882069 2.1901655e-07 0.00014400138   -46.471328 
    1340   -46.494573    4.1887249  -0.67202492    5.8715617   -2.3548617    4.1723337            0           -0            0    10363.806    2071.9346    26883.702     2135.781 0.00010815746 1.8845237e-07 0.00013063616   -46.494573 
    1350   -46.516835     4.191052  -0.67435204    5.8891452   -2.3724452    4.1747476            0           -0            0    9940.4631    2037.5716    25685.553    2098.2647 9.8373508e-05 1.8107607e-07 0.00011838978   -46.516835 
    1360   -46.538153    4.1934549  -0.67675492    5.9067287   -2.3900287    4.1772377            0           -0            0    9533.6728    2004.3842    24534.646    2061.9881 8.9294333e-05 1.7764802e-07 0.00010704258   -46.538153 
    1370   -46.558566    4.1959257  -0.67922566    5.9243122   -2.4076122    4.1797962            0           -0            0     9128.878    1950.6876    23429.726    2006.2207 8.1537892e-05  2.68598e-07 9.7362339e-05   -46.558566 
    1380   -46.578113    4.1984822  -0.68178216    5.9418957   -2.4251957    4.1824404            0           -0            0    8761.5128    1932.0195    22368.482    1984.0367 7.3342021e-05 1.6358558e-07 8.7150318e-05   -46.578113 
    1390   -46.596829    4.2011225  -0.68442246    5.9594792   -2.4427792    4.1851687            0           -0            0    8396.8633    1895.8442    21349.529    1945.2169 6.6287127e-05 1.5795167e-07 7.8375535e-05   -46.596829 
    1400   -46.614748    4.2038466  -0.68714664    5.9770627   -2.4603627    4.1879809            0           -0            0     8048.476    1863.6782    20371.426    1910.3239 5.9669083e-05 1.5632331e-07 7.0158142e-05   -46.614748 
    1410   -46.631904    4.2066394   -0.6899394    5.9946462   -2.4779462    4.1908626            0           -0            0    7573.6247    1617.0893    19433.287    1670.4984 5.9892379e-05 3.4279035e-08 7.0480006e-05   -46.631904 
    1420   -46.648329    4.2094956  -0.69279559    6.0122297   -2.4955297    4.1938087            0           -0            0    7363.7682    1757.0616     18533.86    1800.3829 4.9171619e-05 5.2744442e-07 5.7168166e-05   -46.648329 
    1430   -46.664108    4.2121866  -0.69548655    6.0298132   -2.5131132    4.1965992            0           -0            0     7072.881    1749.9955    17678.831    1789.8171 4.3181252e-05 1.2672392e-07 4.9754964e-05   -46.664108 
    1440   -46.679163    4.2152424  -0.69854243    6.0473967   -2.5306967    4.1997444            0           -0            0    6771.0521    1712.7245     16850.05    1750.3821 3.8574281e-05 1.372368e-07 4.4082099e-05   -46.679163 
    1450   -46.693573    4.2184038  -0.70170383    6.0649802   -2.5482802    4.2029947            0           -0            0    6480.1198    1674.9738    16054.824    1710.5613 3.4370067e-05 1.2709762e-07 3.8918092e-05   -46.693573 
    1460   -46.707364    4.2216564  -0.70495637    6.0825637   -2.5658637    4.2063362            0           -0            0    6201.2588    1638.9346    15292.389    1672.4524 3.0475155e-05 1.239741e-07 3.4145098e-05   -46.707364 
    1470   -46.720562    4.2250078  -0.70830781    6.1001472   -2.5834472    4.2097764            0           -0            0    5932.2596     1601.925    14561.367    1633.4866 2.6940628e-05 9.1222493e-08 2.9826136e-05   -46.720562 
    1480   -46.733202    4.2282996  -0.71159959    6.1177307   -2.6010307    4.2131626            0           -0            0    5692.8792     1592.837    13864.464     1621.337 2.2926268e-05 1.8376313e-07 2.4910179e-05   -46.733202 
    1490   -46.745288    4.2318431  -0.71514314    6.1353142   -2.6186142    4.2167947            0           -0            0    5421.7875    1522.1678     13192.89    1550.3049 2.089527e-05 1.1337975e-07 2.2471948e-05   -46.745288 
    1500   -46.756851    4.2354768  -0.71877678    6.1528977   -2.6361977     4.220517            0           -0            0    5180.9692    1483.4017     12549.64    1509.8656 1.8264021e-05 1.0760253e-07 1.9288509e-05   -46.756851 
    1510   -46.767912    4.2392081  -0.72250814    6.1704812   -2.6537812    4.2243369            0           -0            0    4949.1662    1444.5724    11933.494    1469.4323 1.5879188e-05 1.0154959e-07 1.6414122e-05   -46.767912 
    1520   -46.778491    4.2430382  -0.72633822    6.1880647   -2.6713647    4.2282552            0           -0            0    4726.0558    1405.7102    11343.424    1429.0332 1.3722084e-05 1.0007421e-07 1.3825036e-05   -46.778491 
    1530   -46.788609    4.2469679  -0.73026792    6.2056482   -2.6889482    4.2322728            0           -0            0     4511.327     1366.846    10778.438    1388.6971 1.177534e-05 9.454378e-08 1.1499106e-05   -46.788609 
    1540   -46.798283     4.250998  -0.73429804    6.2232317   -2.7065317    4.2363905            0           -0            0    4304.6801    1328.0111    10237.576    1348.4533 1.0022817e-05 9.0772638e-08 9.4157967e-06   -46.798283 
    1550   -46.807531    4.2551293  -0.73842928    6.2408152   -2.7241152    4.2406089            0           -0            0    4105.8267     1289.237    9719.9116    1308.3316 8.4495241e-06 9.0120158e-08 7.5560477e-06   -46.807531 
    1560    -46.81637    4.2593622  -0.74266223    6.2583987   -2.7416987    4.2449285            0           -0            0    3914.4891    1250.5556    9224.5497    1268.3621 7.0415289e-06 8.3534515e-08 5.9021276e-06    -46.81637 
    1570   -46.824817    4.2636971  -0.74699714    6.2759822   -2.7592822    4.2493495            0           -0            0     3730.245    1211.7599    8750.6287    1228.3464 5.7915578e-06 8.1950227e-08 4.4447437e-06   -46.824817 
    1580   -46.832887    4.2681351  -0.75143511    6.2935657   -2.7768657    4.2538728            0           -0            0    3553.5385    1173.9626    8297.3031    1189.3496 4.6618318e-06 7.976874e-08 3.1365679e-06   -46.832887 
    1590   -46.840594    4.2726749  -0.75597491    6.3111492   -2.7944492    4.2584973            0           -0            0    3376.3558     1125.284    7863.7872    1139.9961 3.919755e-06 -4.4895108e-10 2.3101277e-06   -46.840594 
    1600   -46.848004    4.2769528  -0.76025279    6.3287327   -2.8120327    4.2628726            0           -0            0    3231.9558    1114.6896    7453.9528    1127.2249 2.3859838e-06 4.8515187e-08 4.9367207e-07   -46.848004 
    1610   -46.855033    4.2817063  -0.76500626    6.3463162   -2.8296162    4.2677088            0           -0            0    3068.0364    1067.3879    7057.4094    1079.3118 1.8510903e-06 7.1113199e-08 -7.6663297e-08   -46.855033 
    1620   -46.861739    4.2865591  -0.76985911    6.3638997   -2.8471997    4.2726435            0           -0            0    2920.1499    1035.6336    6678.4642    1046.3518 1.0687126e-06 6.6497996e-08 -9.5626469e-07   -46.861739 
    1630   -46.868135    4.2915046  -0.77480459    6.3814832   -2.8647832    4.2776702            0           -0            0    2805.8727    1046.6825    6316.4801    1054.4555 -5.5412387e-07 6.0159523e-08 -2.8828823e-06   -46.868135 
    1640   -46.874232    4.2965385  -0.77983853    6.3990667   -2.8823667    4.2827846            0           -0            0    2734.7134    1115.4343    5970.8017    1117.9042 -3.3057335e-06 6.5764314e-08 -6.2149282e-06   -46.874232 
    1650    -46.88004    4.3016604  -0.78496044    6.4166502   -2.8999502    4.2879863            0           -0            0    2705.0425    1239.7316    5640.7539    1234.6421 -7.0897712e-06 5.9034229e-08 -1.0832272e-05    -46.88004 
    1660   -46.885574    4.3069172  -0.79021725    6.4342337   -2.9175337    4.2933203            0           -0            0    2577.6887    1206.8959     5325.252    1200.9181 -7.3824738e-06 9.7996039e-08 -1.1108215e-05   -46.885574 
    1670   -46.890837    4.3124823  -0.79578231    6.4518172   -2.9351172    4.2989534            0           -0            0    1942.5792    389.72775    5022.2475    415.76247 8.6460117e-06 -4.5984186e-07 8.9116091e-06   -46.890837 
    1680   -46.895859    4.3178039  -0.80110386    6.4694007   -2.9527007    4.3043541            0           -0            0    2133.7042    829.86243     4735.938    835.31212 -1.400784e-06 -3.2107912e-06 -3.4993172e-06   -46.895859 
    1690   -46.900609    4.3235144  -0.80681445    6.4869842   -2.9702842    4.3101315            0           -0            0    1654.0012    236.73681    4460.4087    264.85825 9.6488604e-06 -2.2047733e-06 1.0321211e-05   -46.900609 
    1700   -46.905145    4.3288928  -0.81219285    6.5045677   -2.9878677    4.3155907            0           -0            0    2024.5309     938.0222    4200.7179    934.85269 -5.1427204e-06 3.2347201e-06 -7.9904878e-06   -46.905145 
    1710   -46.909447     4.334732  -0.81803199    6.5221512   -3.0054512    4.3214955            0           -0            0    1847.7605    796.06065      3950.38     796.8409 -3.0362511e-06 -0.00011715028 -5.2933703e-06   -46.909447 
    1720   -46.913519    4.3404968  -0.82379684    6.5397347   -3.0230347    4.3273301            0           -0            0    1741.7114    755.90356    3712.7686    756.46212 -2.8972307e-06  0.015992368 -5.0448998e-06   -46.913519 
    1730   -46.917384    4.3465413  -0.82984129    6.5573182   -3.0406182    4.3334355            0           -0            0    1509.6169    517.59475    3485.0485    526.20737 9.9468062e-07   0.21250288 -1.3148996e-07   -46.917384 
    1740    -46.92104    4.3523305   -0.8356305    6.5749017   -3.0582017    4.3392961            0           -0            0    1450.2636     537.3868    3269.9949    543.40916 -6.1271925e-06    257.75252 -6.0037167e-06    -46.92104 
    1750   -46.924501    4.3583934   -0.8416934    6.5924852   -3.0757852    4.3454214            0           -0            0     1467.255     669.4855    3063.9633    668.31635 -5.9255335e-06    131.98316 -7.1443355e-06   -46.924501 
    1760   -46.927767    4.3646762  -0.84797618    6.6100687   -3.0933687    4.3517592            0           -0            0    1202.2155    364.95868    2866.9582    374.72968 4.9409843e-06   -121.43018  3.65451e-06   -46.927767 
    1770   -46.930823    4.3705892  -0.85388917    6.6276522   -3.1109522    4.3577415            0           -0            0    1347.5429    683.04985     2681.485    678.09392 1.0400884e-05   -632.56687 5.1140976e-06   -46.930823 
    1780   -46.933756    4.3771328  -0.86043282    6.6452357   -3.1285357    4.3643316            0           -0            0    977.34367    208.33905    2502.2629    221.42906 1.260657e-06    120.97872 1.7868777e-06   -46.933756 
    1790    -46.93649    4.3834137  -0.86671374    6.6628192   -3.1461192    4.3706688            0           -0            0    1120.4329     514.6093    2333.0988    513.59059 -2.8577885e-06    58.828218 -3.9261175e-06    -46.93649 
    1800   -46.939049    4.3899398  -0.87323982    6.6804027   -3.1637027     4.377242            0           -0            0    899.29144    259.23109    2171.3408    267.30243 -3.4697771e-06    273.64652 -2.5018647e-06   -46.939049 
    1810   -46.941456    4.3965146  -0.87981458    6.6979862   -3.1812862    4.3838618            0           -0            0    854.24397    269.49057    2017.4761    275.76521 4.8223731e-06   -143.26764 3.7404509e-06   -46.941456 
    1820   -46.943706    4.4030071  -0.88630705    6.7155697   -3.1988697    4.3904016            0           -0            0    861.76901    356.15796    1871.5853    357.56374 8.4288481e-07   -29.451795 -3.3385044e-08   -46.943706 
    1830   -46.945798    4.4095412  -0.89284119    6.7331532   -3.2164532    4.3969806            0           -0            0    1032.5994    689.23633    1732.8282     675.7336 -5.6604955e-06    32.654728 -7.4707677e-06   -46.945798 
    1840   -46.947714    4.4164798  -0.89977984    6.7507367   -3.2340367    4.4039482            0           -0            0    818.22392    429.48358    1599.7617    425.42649 -1.3041985e-05    615.63044 -1.1321218e-05   -46.947714 
    1850   -46.949526     4.423096  -0.90639598     6.768204    -3.251504    4.4106016            0           -0            0    939.32892    679.18663    1475.0178    663.78236 2.0912814e-06   -370.42772 -1.3084969e-06   -46.949526 
    1860   -46.951175    4.4301107  -0.91341073    6.7854541   -3.2687541    4.4176339            0           -0            0     498.1722    64.611414    1356.6479    73.257273 -6.0628741e-07    244.00611 7.3749963e-07   -46.951175 
    1870    -46.95264    4.4358065  -0.91910651    6.8024649   -3.2857649    4.4233892            0           -0            0    1032.3525    938.15982    1248.7355    910.16221 -1.3264778e-05    278.15441 -1.4691154e-05    -46.95264 
    1880   -46.953991    4.4427309  -0.92603092    6.8183981   -3.3016981    4.4303095            0           -0            0    332.58815   -81.751249    1148.5766    -69.06087 2.1135183e-06    197.38136 3.7101053e-06   -46.953991 
    1890   -46.955211    4.4488623  -0.93216233    6.8351292   -3.3184292    4.4364753            0           -0            0    618.73568    406.68584      1050.95    398.57118 -9.1757775e-06    488.38554 -8.0148771e-06   -46.955211 
    1900   -46.956176    4.4547927  -0.93809273    6.8488437   -3.3321437    4.4423986            0           -0            0    163.82233   -249.46083    972.51309   -231.58526 1.8244058e-06    340.34245 4.4217659e-06   -46.956176 
    1910   -46.957216    4.4602178  -0.94351779    6.8646741   -3.3479741     4.447864            0           -0            0    493.45618    298.45358    888.64382    293.27116 -4.865796e-06    337.79468 -3.9343738e-06   -46.957216 
    1920   -46.958211    4.4667009  -0.95000091    6.8816931   -3.3649931    4.4543633            0           -0            0    545.47029    423.00085    801.43597    411.97405 -2.5437485e-06    106.96429 -2.7543419e-06   -46.958211 
    1930   -46.959018    4.4725834  -0.95588341    6.8972647   -3.3805647    4.4602581            0           -0            0     477.9137    358.70154    725.43023    349.60933 6.5230163e-07   -47.849329 1.5591062e-07   -46.959018 
    1940   -46.959763    4.4793892  -0.96268922    6.9132903   -3.3965903    4.4670449            0           -0            0    217.22904   -1.3426084    649.55535    3.4743873 1.3152361e-05   -644.84858 1.1766764e-05   -46.959763 
    1950   -46.960349    4.4837614  -0.96706139    6.9257271   -3.4090271    4.4714315            0           -0            0    456.13138     392.7749    594.47019    381.14905 3.6208098e-06   -276.56963 2.4664853e-06   -46.960349 
    1960   -46.960943     4.489895  -0.97319496    6.9415497   -3.4248497    4.4775582            0           -0            0    204.59959    42.736732    526.38279    44.679248 1.1557534e-05   -613.07591 1.0374527e-05   -46.960943 
    1970   -46.961306    4.4935954  -0.97689544    6.9511413   -3.4344413    4.4812526            0           -0            0    108.87766   -83.347617    486.63814   -76.657528 6.4063084e-06   -125.84161 6.9812015e-06   -46.961306 
    1980   -46.961584    4.4966222  -0.97992218     6.960335    -3.443635    4.4842892            0           -0            0    388.90325    364.09032    450.21106    352.40836 -8.6934941e-07    115.42805 -6.1643626e-07   -46.961584 
    1990   -46.961896    4.5006125  -0.98391245    6.9707804   -3.4540804    4.4882681            0           -0            0    121.15789    -24.73919    409.28603    -21.07316 4.1571063e-06    6.7114324 5.0072319e-06   -46.961896 
    2000   -46.962173    4.5042745  -0.98757452    6.9810547   -3.4643547    4.4919252            0           -0            0     404.2069    428.50737    370.52286    413.59046 2.6403743e-06   -208.90751 2.0221319e-06   -46.962173 
    2010   -46.962341    4.5069052  -0.99020516    6.9875159   -3.4708159    4.4945389            0           -0            0   -9.3337549   -192.12101      346.353   -182.23326 7.533921e-06   -169.55824 8.3179082e-06   -46.962341 
    2020   -46.962556    4.5100237  -0.99332375     6.996815    -3.480115    4.4976552            0           -0            0    178.06241    111.86651    313.06735    109.25338 5.6148181e-06   -235.16313 5.6815467e-06   -46.962556 
    2030    -46.96266    4.5120194  -0.99531937    7.0034468   -3.4867468    4.4996551            0           -0            0    398.46337    461.06633      290.077    444.24679 1.8766846e-06   -140.43588 1.5502465e-06    -46.96266 
    2040   -46.962802    4.5146626  -0.99796257    7.0104515   -3.4937515     4.502282            0           -0            0    32.961507   -85.903102    265.71322   -80.925603 6.7000623e-06    -202.2567 7.2745055e-06   -46.962802 
    2050   -46.962853    4.5152396  -0.99853959    7.0121431   -3.4954431    4.5028569            0           -0            0    280.15577    295.44427    259.95976    285.06329 1.5466608e-06    35.584151 1.9684009e-06   -46.962853 
    2060   -46.962891    4.5161124   -0.9994124    7.0145475   -3.4978475    4.5037246            0           -0            0    178.88207    144.62583     251.7776    140.24278 1.9144264e-06    118.24402 2.7836929e-06   -46.962891 
    2070    -46.96306    4.5195852   -1.0028852    7.0248565   -3.5081565    4.5071836            0           -0            0    53.980958    -28.98541    217.57441   -26.646125 4.131349e-06    20.774818 5.1092673e-06    -46.96306 
    2080   -46.963171    4.5223414   -1.0056414    7.0332649   -3.5165649    4.5099275            0           -0            0    40.266213   -36.039217    190.44195   -33.604093 5.0420637e-06   -82.970404 5.8508966e-06   -46.963171 
    2090    -46.96327    4.5250231   -1.0083231    7.0417362   -3.5250362    4.5125978            0           -0            0    18.283831   -56.008005    163.80998   -52.950479 4.350181e-06    16.111714 5.3764136e-06    -46.96327 
    2100   -46.963333    4.5267725   -1.0100725    7.0477127   -3.5310127    4.5143425            0           -0            0    77.085149    43.395753    145.49294    42.366758 3.972972e-06   -8.9964279 4.8347969e-06   -46.963333 
    2110     -46.9634    4.5290103   -1.0123103    7.0553929   -3.5386929    4.5165713            0           -0            0    78.052578    56.749581    122.34855    55.059604 3.9906821e-06   -20.003434 4.8385361e-06     -46.9634 
    2120   -46.963435    4.5303458   -1.0136458    7.0601274   -3.5434274    4.5179019            0           -0            0    58.720229    34.347827    108.33383     33.47903 3.9254154e-06    9.1430072 4.8465831e-06   -46.963435 
    2130   -46.963476    4.5321637   -1.0154637    7.0668509   -3.5501509    4.5197146            0           -0            0    28.056173   -2.5502503    88.762772   -2.0440016 4.1248869e-06 -0.054328186 5.0761209e-06   -46.963476 
    2140   -46.963512    4.5340233   -1.0173233    7.0741989   -3.5574989    4.5215729            0           -0            0     32.64181    15.198057    67.817224    14.910149 3.7909223e-06    55.556935 4.7770979e-06   -46.963512 
    2150    -46.96352    4.5344657   -1.0177657    7.0760803   -3.5593803    4.5220165            0           -0            0    17.284611    -5.594821    62.526115   -5.0774597 4.0839619e-06   -4.1985075 5.0291803e-06    -46.96352 
    2160   -46.963536     4.535563    -1.018863    7.0809096   -3.5642096    4.5231191            0           -0            0     26.15971    14.869593    49.078828     14.53071 3.9674466e-06   -2.7692706 4.8946579e-06   -46.963536 
    2170   -46.963545    4.5364632   -1.0197632    7.0852129   -3.5685129     4.524031            0           -0            0    4.7065911   -11.901724    37.236773   -11.215275 3.5630948e-06    173.50994 4.5636399e-06   -46.963545 
    2180   -46.963556    4.5374272   -1.0207272    7.0904104   -3.5737104    4.5250213            0           -0            0   -10.836451   -28.477083    23.139094   -27.171364 3.7992722e-06   -30.740336 4.6878887e-06   -46.963556 
    2190   -46.963561    4.5379565   -1.0212565    7.0939818   -3.5772818    4.5255885            0           -0            0   -7.0834879   -17.843715    13.577157   -16.983905 3.5789653e-06    13.224547 4.4226761e-06   -46.963561 
    2200   -46.963562    4.5381766   -1.0214766    7.0959776   -3.5792776    4.5258468            0           -0            0    2.1504042   -1.0056577    8.2737172  -0.81684677 3.4060904e-06    5.8723835 4.2091564e-06   -46.963562 
    2210   -46.963563    4.5383895   -1.0216895    7.1001298   -3.5834298    4.5262033            0           -0            0   -19.230204   -29.972851     1.058621   -28.776383 -2.366572e-08    19.479131 3.6047392e-06   -46.963563 
    2220   -46.963563    4.5383804   -1.0216804    7.1001336   -3.5834336    4.5261948            0           -0            0  -0.34417814   -1.0877047     1.055745   -1.0005747 -1.5757429e-08   0.71309117 3.6848921e-06   -46.963563 
Loop time of 0.0215549 on 1 procs for 2220 steps with 4 atoms

100.0% CPU use with 1 MPI tasks x no OpenMP threads

Minimization stats:
  Stopping criterion = linesearch alpha is zero
  Energy initial, next-to-last, final = 
        -17.8420115292     -46.9635628361     -46.9635628361
  Force two-norm initial, final = 0.572051 0.000384552
  Force max component initial, final = 0.330262 0.000164309
  Final line search alpha, max atom move = 0.0625 1.02693e-05
  Iterations, force evaluations = 2220 3132

MPI task timing breakdown:
Section |  min time  |  avg time  |  max time  |%varavg| %total
---------------------------------------------------------------
Pair    | 0.0082355  | 0.0082355  | 0.0082355  |   0.0 | 38.21
Neigh   | 0.00013709 | 0.00013709 | 0.00013709 |   0.0 |  0.64
Comm    | 0.0023699  | 0.0023699  | 0.0023699  |   0.0 | 10.99
Output  | 0.0024099  | 0.0024099  | 0.0024099  |   0.0 | 11.18
Modify  | 0          | 0          | 0          |   0.0 |  0.00
Other   |            | 0.008403   |            |       | 38.98

Nlocal:    4 ave 4 max 4 min
Histogram: 1 0 0 0 0 0 0 0 0 0
Nghost:    86 ave 86 max 86 min
Histogram: 1 0 0 0 0 0 0 0 0 0
Neighs:    18 ave 18 max 18 min
Histogram: 1 0 0 0 0 0 0 0 0 0

Total # of neighbors = 18
Ave neighs/atom = 4.5
Neighbor list builds = 16
Dangerous builds = 0
# ---- define output variables ----
variable natoms equal "count(all)"
variable tot_energy equal "c_eatoms"
variable a11 equal "xhi-xlo"
variable a22 equal "yhi-ylo"
variable a33 equal "zhi-zlo"
variable tilt_xy equal "xy"
variable tilt_xz equal "xz"
variable tilt_yz equal "yz"
variable tot_press equal "press"
variable press_xx equal "pxx"
variable press_yy equal "pyy"
variable press_zz equal "pzz"
variable press_xy equal "pxy"
variable press_xz equal "pxz"
variable press_yz equal "pyz"

# ---- output ----
print "pypospack:output_section:begin"
pypospack:output_section:begin
print "tot_energy = ${tot_energy}"
tot_energy = -46.9635628361338
print "num_atoms = ${natoms}"
num_atoms = 4
print "a11 = ${a11}"
a11 = 5.56006071446634
print "a22 = ${a22}"
a22 = 10.6835671145525
print "a33 = ${a33}"
a33 = 5.53568959266076
print "a12 = ${tilt_xy}"
a12 = 0
print "a13 = ${tilt_xz}"
a13 = -0
print "a23 = ${tilt_yz}"
a23 = 0
print "tot_press = ${tot_press}"
tot_press = -0.344178136586257
print "pxx = ${press_xx}"
pxx = -1.08770469758948
print "pyy = ${press_yy}"
pyy = 1.05574500713573
print "pzz = ${press_zz}"
pzz = -1.00057471930502
print "pxy = ${press_xy}"
pxy = -1.57574292654945e-08
print "pxz = ${press_xz}"
pxz = 0.713091165812602
print "pyz = ${press_yz}"
pyz = 3.68489213230865e-06
print "pypospack:output_section:done"
pypospack:output_section:done
print "pypospack:lammps_sim:done"
pypospack:lammps_sim:done
Total wall time: 0:00:00
