LAMMPS (11 Aug 2017)
Reading data file ...
  triclinic box = (0 0 0) to (2.4819 4.2987 6.0783) with tilt (0 0 0)
  1 by 1 by 1 MPI processor grid
  reading atoms ...
  6 atoms
6 atoms in group Ni
Neighbor list info ...
  update every 1 steps, delay 0 steps, check yes
  max neighbors/atom: 2000, page size: 100000
  master list distance cutoff = 11
  ghost atom cutoff = 11
  binsize = 5.5, bins = 1 1 2
  1 neighbor lists, perpetual/occasional/extra = 1 0 0
  (1) pair eam/alloy, perpetual
      attributes: half, newton on
      pair build: half/bin/newton/tri
      stencil: half/bin/3d/newton/tri
      bin: standard
Setting up cg style minimization ...
  Unit style    : metal
  Current step  : 0
WARNING: Energy due to 3 extra global DOFs will be included in minimizer energies
Per MPI rank memory allocation (min/avg/max) = 4.298 | 4.298 | 4.298 Mbytes
Step PotEng Xhi Xlo Yhi Ylo Zhi Xy Xz Yz Press Pxx Pyy Pzz Pxy Pxz Pyz c_eatoms 
       0   -27.090913       2.4819            0       4.2987            0       6.0783            0            0            0   -4555.2759   -4722.2642    -4687.528   -4256.0354 -0.0036782973 -0.0013459348   -8.8197123   -27.090913 
      10   -27.091138    2.4808129 0.0010871126    4.2968559 0.0018441396    6.0761815            0            0            0  -0.01501673  0.082735652  -0.23139355   0.10360771 3.7613512e-08 1.1581919e-07  0.079729362   -27.091138 
      20   -27.091138     2.480813 0.0010870439    4.2968556 0.0018443656    6.0761816            0            0            0 2.5620502e-05 1.9477159e-05 3.7084414e-05 2.0299934e-05 -1.7553585e-10 -1.5590279e-11 -4.4686359e-06   -27.091138 
      30   -27.091138     2.480813 0.0010870439    4.2968556 0.0018443656    6.0761816            0            0            0 -1.0389168e-09 -1.4426637e-09 -1.0228525e-09 -6.5123426e-10 7.8060394e-11 2.4204377e-13 -1.227498e-10   -27.091138 
      32   -27.091138     2.480813 0.0010870439    4.2968556 0.0018443656    6.0761816            0            0            0 1.0630979e-09 1.1399896e-09 1.0894888e-09 9.5981543e-10 -7.2694189e-11 3.5387982e-11 -1.8985814e-10   -27.091138 
Loop time of 0.00815082 on 1 procs for 32 steps with 6 atoms

100.0% CPU use with 1 MPI tasks x no OpenMP threads

Minimization stats:
  Stopping criterion = energy tolerance
  Energy initial, next-to-last, final = 
        -27.0909125528     -27.0911383717     -27.0911383717
  Force two-norm initial, final = 0.319702 8.18545e-14
  Force max component initial, final = 0.191136 4.607e-14
  Final line search alpha, max atom move = 1 4.607e-14
  Iterations, force evaluations = 32 64

MPI task timing breakdown:
Section |  min time  |  avg time  |  max time  |%varavg| %total
---------------------------------------------------------------
Pair    | 0.006119   | 0.006119   | 0.006119   |   0.0 | 75.07
Neigh   | 0          | 0          | 0          |   0.0 |  0.00
Comm    | 0.00049162 | 0.00049162 | 0.00049162 |   0.0 |  6.03
Output  | 4.5061e-05 | 4.5061e-05 | 4.5061e-05 |   0.0 |  0.55
Modify  | 0          | 0          | 0          |   0.0 |  0.00
Other   |            | 0.001495   |            |       | 18.34

Nlocal:    6 ave 6 max 6 min
Histogram: 1 0 0 0 0 0 0 0 0 0
Nghost:    1626 ave 1626 max 1626 min
Histogram: 1 0 0 0 0 0 0 0 0 0
Neighs:    1590 ave 1590 max 1590 min
Histogram: 1 0 0 0 0 0 0 0 0 0

Total # of neighbors = 1590
Ave neighs/atom = 265
Neighbor list builds = 0
Dangerous builds = 0
pypospack:output_section:begin
tot_energy = -27.0911383717356
num_atoms = 6
a11 = 2.4797259122143
a22 = 4.29501126880024
a33 = 6.07406318688258
a12 = 0
a13 = 0
a23 = 0
tot_press = 1.06309793825608e-09
pxx = 1.13998959066332e-09
pyy = 1.08948879404613e-09
pzz = 9.59815430058779e-10
pxy = -7.26941887648038e-11
pxz = 3.53879817981004e-11
pyz = -1.89858140167511e-10
pypospack:output_section:done
pypospack:lammps_sim:done
Total wall time: 0:00:00
