LAMMPS (11 Aug 2017)
Reading data file ...
  triclinic box = (0 0 0) to (2.8005 2.8005 2.8005) with tilt (0 0 0)
  1 by 1 by 1 MPI processor grid
  reading atoms ...
  2 atoms
2 atoms in group Ni
Neighbor list info ...
  update every 1 steps, delay 0 steps, check yes
  max neighbors/atom: 2000, page size: 100000
  master list distance cutoff = 5.64464
  ghost atom cutoff = 5.64464
  binsize = 2.82232, bins = 1 1 1
  1 neighbor lists, perpetual/occasional/extra = 1 0 0
  (1) pair eam/alloy, perpetual
      attributes: half, newton on
      pair build: half/bin/newton/tri
      stencil: half/bin/3d/newton/tri
      bin: standard
Setting up cg style minimization ...
  Unit style    : metal
  Current step  : 0
WARNING: Energy due to 3 extra global DOFs will be included in minimizer energies
Per MPI rank memory allocation (min/avg/max) = 4.24 | 4.24 | 4.24 Mbytes
Step PotEng Xhi Xlo Yhi Ylo Zhi Xy Xz Yz Press Pxx Pyy Pzz Pxy Pxz Pyz c_eatoms 
       0     -7.12975       2.8005            0       2.8005            0       2.8005            0            0            0   -54590.549   -54590.549   -54590.549   -54590.549  0.025135217  0.025135217  0.025135217     -7.12975 
      10   -7.1461821    2.7864975    0.0140025    2.7864975    0.0140025    2.7864975            0            0            0   -25177.281   -25177.281   -25177.281   -25177.281 0.0023238896 0.0023238896 0.0023238896   -7.1461821 
      20   -7.1499627    2.7762363  0.024263698    2.7762363  0.024263698    2.7762363            0            0            0 -0.020250124 -0.020250124 -0.020250124 -0.020250124 -1.5222438e-10 1.5642505e-10 -2.8004485e-11   -7.1499627 
      21   -7.1499627    2.7762363  0.024263703    2.7762363  0.024263703    2.7762363            0            0            0 -0.0063331284 -0.0063331285 -0.0063331284 -0.0063331284 8.7213968e-11 -1.6402627e-11 -1.6936046e-11   -7.1499627 
Loop time of 0.00037694 on 1 procs for 21 steps with 2 atoms

61.5% CPU use with 1 MPI tasks x no OpenMP threads

Minimization stats:
  Stopping criterion = energy tolerance
  Energy initial, next-to-last, final = 
        -7.12974997299     -7.14996271284     -7.14996271284
  Force two-norm initial, final = 1.29621 1.60996e-07
  Force max component initial, final = 0.748366 8.38362e-08
  Final line search alpha, max atom move = 1 8.38362e-08
  Iterations, force evaluations = 21 25

MPI task timing breakdown:
Section |  min time  |  avg time  |  max time  |%varavg| %total
---------------------------------------------------------------
Pair    | 0.00016284 | 0.00016284 | 0.00016284 |   0.0 | 43.20
Neigh   | 0          | 0          | 0          |   0.0 |  0.00
Comm    | 4.673e-05  | 4.673e-05  | 4.673e-05  |   0.0 | 12.40
Output  | 1.8835e-05 | 1.8835e-05 | 1.8835e-05 |   0.0 |  5.00
Modify  | 0          | 0          | 0          |   0.0 |  0.00
Other   |            | 0.0001485  |            |       | 39.41

Nlocal:    2 ave 2 max 2 min
Histogram: 1 0 0 0 0 0 0 0 0 0
Nghost:    339 ave 339 max 339 min
Histogram: 1 0 0 0 0 0 0 0 0 0
Neighs:    64 ave 64 max 64 min
Histogram: 1 0 0 0 0 0 0 0 0 0

Total # of neighbors = 64
Ave neighs/atom = 32
Neighbor list builds = 0
Dangerous builds = 0
pypospack:output_section:begin
tot_energy = -7.14996271283764
num_atoms = 2
a11 = 2.75197259339628
a22 = 2.75197259339628
a33 = 2.75197259339628
a12 = 0
a13 = 0
a23 = 0
tot_press = -0.00633312842581069
pxx = -0.00633312845027016
pyy = -0.00633312842946683
pzz = -0.00633312839769507
pxy = 8.72139683854267e-11
pxz = -1.64026270816628e-11
pyz = -1.69360458485462e-11
pypospack:output_section:done
pypospack:lammps_sim:done
Total wall time: 0:00:00
