# ['Ni']

20 atoms
1 atom types

    0.0000     3.0996 xlo xhi
    0.0000     3.0996 ylo yhi
    0.0000    30.9961 zlo zhi

    0.0000    -0.0000     0.0000 xy xz yz

Atoms

1 1     0.0000     0.0000     0.0000
2 1     1.5498     1.5498     0.0000
3 1     1.5498     0.0000     1.5498
4 1     0.0000     1.5498     1.5498
5 1     0.0000     0.0000     3.0996
6 1     1.5498     1.5498     3.0996
7 1     1.5498     0.0000     4.6494
8 1     0.0000     1.5498     4.6494
9 1     0.0000     0.0000     6.1992
10 1     1.5498     1.5498     6.1992
11 1     1.5498     0.0000     7.7490
12 1     0.0000     1.5498     7.7490
13 1     0.0000     0.0000     9.2988
14 1     1.5498     1.5498     9.2988
15 1     1.5498     0.0000    10.8486
16 1     0.0000     1.5498    10.8486
17 1     0.0000     0.0000    12.3984
18 1     1.5498     1.5498    12.3984
19 1     1.5498     0.0000    13.9482
20 1     0.0000     1.5498    13.9482
