# ['Ni']

107 atoms
1 atom types

    0.0000    10.5413 xlo xhi
    0.0000    10.5413 ylo yhi
    0.0000    10.5413 zlo zhi

    0.0000    -0.0000    -0.0000 xy xz yz

Atoms

1 1     1.7569     1.7569     0.0000
2 1     1.7569     0.0000     1.7569
3 1     0.0000     1.7569     1.7569
4 1     0.0000     0.0000     3.5138
5 1     1.7569     1.7569     3.5138
6 1     1.7569     0.0000     5.2706
7 1     0.0000     1.7569     5.2706
8 1     0.0000     0.0000     7.0275
9 1     1.7569     1.7569     7.0275
10 1     1.7569     0.0000     8.7844
11 1     0.0000     1.7569     8.7844
12 1     0.0000     3.5138     0.0000
13 1     1.7569     5.2706     0.0000
14 1     1.7569     3.5138     1.7569
15 1     0.0000     5.2706     1.7569
16 1     0.0000     3.5138     3.5138
17 1     1.7569     5.2706     3.5138
18 1     1.7569     3.5138     5.2706
19 1     0.0000     5.2706     5.2706
20 1     0.0000     3.5138     7.0275
21 1     1.7569     5.2706     7.0275
22 1     1.7569     3.5138     8.7844
23 1     0.0000     5.2706     8.7844
24 1     0.0000     7.0275     0.0000
25 1     1.7569     8.7844     0.0000
26 1     1.7569     7.0275     1.7569
27 1     0.0000     8.7844     1.7569
28 1     0.0000     7.0275     3.5138
29 1     1.7569     8.7844     3.5138
30 1     1.7569     7.0275     5.2706
31 1     0.0000     8.7844     5.2706
32 1     0.0000     7.0275     7.0275
33 1     1.7569     8.7844     7.0275
34 1     1.7569     7.0275     8.7844
35 1     0.0000     8.7844     8.7844
36 1     3.5138     0.0000     0.0000
37 1     5.2706     1.7569     0.0000
38 1     5.2706     0.0000     1.7569
39 1     3.5138     1.7569     1.7569
40 1     3.5138     0.0000     3.5138
41 1     5.2706     1.7569     3.5138
42 1     5.2706     0.0000     5.2706
43 1     3.5138     1.7569     5.2706
44 1     3.5138     0.0000     7.0275
45 1     5.2706     1.7569     7.0275
46 1     5.2706     0.0000     8.7844
47 1     3.5138     1.7569     8.7844
48 1     3.5138     3.5138     0.0000
49 1     5.2706     5.2706     0.0000
50 1     5.2706     3.5138     1.7569
51 1     3.5138     5.2706     1.7569
52 1     3.5138     3.5138     3.5138
53 1     5.2706     5.2706     3.5138
54 1     5.2706     3.5138     5.2706
55 1     3.5138     5.2706     5.2706
56 1     3.5138     3.5138     7.0275
57 1     5.2706     5.2706     7.0275
58 1     5.2706     3.5138     8.7844
59 1     3.5138     5.2706     8.7844
60 1     3.5138     7.0275     0.0000
61 1     5.2706     8.7844     0.0000
62 1     5.2706     7.0275     1.7569
63 1     3.5138     8.7844     1.7569
64 1     3.5138     7.0275     3.5138
65 1     5.2706     8.7844     3.5138
66 1     5.2706     7.0275     5.2706
67 1     3.5138     8.7844     5.2706
68 1     3.5138     7.0275     7.0275
69 1     5.2706     8.7844     7.0275
70 1     5.2706     7.0275     8.7844
71 1     3.5138     8.7844     8.7844
72 1     7.0275     0.0000     0.0000
73 1     8.7844     1.7569     0.0000
74 1     8.7844     0.0000     1.7569
75 1     7.0275     1.7569     1.7569
76 1     7.0275     0.0000     3.5138
77 1     8.7844     1.7569     3.5138
78 1     8.7844     0.0000     5.2706
79 1     7.0275     1.7569     5.2706
80 1     7.0275     0.0000     7.0275
81 1     8.7844     1.7569     7.0275
82 1     8.7844     0.0000     8.7844
83 1     7.0275     1.7569     8.7844
84 1     7.0275     3.5138     0.0000
85 1     8.7844     5.2706     0.0000
86 1     8.7844     3.5138     1.7569
87 1     7.0275     5.2706     1.7569
88 1     7.0275     3.5138     3.5138
89 1     8.7844     5.2706     3.5138
90 1     8.7844     3.5138     5.2706
91 1     7.0275     5.2706     5.2706
92 1     7.0275     3.5138     7.0275
93 1     8.7844     5.2706     7.0275
94 1     8.7844     3.5138     8.7844
95 1     7.0275     5.2706     8.7844
96 1     7.0275     7.0275     0.0000
97 1     8.7844     8.7844     0.0000
98 1     8.7844     7.0275     1.7569
99 1     7.0275     8.7844     1.7569
100 1     7.0275     7.0275     3.5138
101 1     8.7844     8.7844     3.5138
102 1     8.7844     7.0275     5.2706
103 1     7.0275     8.7844     5.2706
104 1     7.0275     7.0275     7.0275
105 1     8.7844     8.7844     7.0275
106 1     8.7844     7.0275     8.7844
107 1     7.0275     8.7844     8.7844
