LAMMPS (11 Aug 2017)
include init.mod
# ---- init.mod file
variable up equal 1.0e-6
units metal
dimension 3
boundary p p p
atom_style atomic
atom_modify map array
variable cfac equal 1.0e-4
variable cunits string GPa
# ---- define minimization parameters
variable etol equal 0.0
variable ftol equal 1.0e-10
variable maxiter equal 100
variable maxeval equal 1000
variable dmax equal 1.0e-2
# --- read data structure
read_data lammps.structure
  triclinic box = (0 0 0) to (3.5167 3.5167 3.5167) with tilt (0 -0 0)
  1 by 1 by 1 MPI processor grid
  reading atoms ...
  4 atoms
include potential.mod
mass 1 58.6934

group Ni type 1
4 atoms in group Ni

pair_style eam/alloy
pair_coeff * * /ufrc/phillpot/eragasa/pareto_optimization_3.5NN/rank_36/Ni_fcc.lmps_elastic/Ni.eam.alloy Ni

neighbor 1.0 bin
neigh_modify every 1 delay 0 check yes
thermo	1
thermo_style custom step temp pe press pxx pyy pzz pxy pxz pyz lx ly lz vol
thermo_modify norm no
# ---- Compute initial state
fix 3 all box/relax aniso 0.0
minimize ${etol} ${ftol} ${maxiter} ${maxeval}
minimize 0 ${ftol} ${maxiter} ${maxeval}
minimize 0 1e-10 ${maxiter} ${maxeval}
minimize 0 1e-10 100 ${maxeval}
minimize 0 1e-10 100 1000
Neighbor list info ...
  update every 1 steps, delay 0 steps, check yes
  max neighbors/atom: 2000, page size: 100000
  master list distance cutoff = 5.64464
  ghost atom cutoff = 5.64464
  binsize = 2.82232, bins = 2 2 2
  1 neighbor lists, perpetual/occasional/extra = 1 0 0
  (1) pair eam/alloy, perpetual
      attributes: half, newton on
      pair build: half/bin/newton/tri
      stencil: half/bin/3d/newton/tri
      bin: standard
Per MPI rank memory allocation (min/avg/max) = 4.086 | 4.086 | 4.086 Mbytes
Step Temp PotEng Press Pxx Pyy Pzz Pxy Pxz Pyz Lx Ly Lz Volume 
       0            0   -12.948077   -273030.32   -273030.32   -273030.32   -273030.32 1.0991655e-11 3.1952486e-12 7.6685966e-13       3.5167       3.5167       3.5167    43.491658 
       1            0     -12.9503   -272912.88   -272912.88   -272912.88   -272912.88 3.0683591e-11 5.471907e-11 1.1506347e-11    3.5163483    3.5163483    3.5163483    43.478612 
       2            0   -12.952522      -272795      -272795      -272795      -272795 4.4760331e-12 -1.5602173e-11 2.9413932e-12    3.5159967    3.5159967    3.5159967    43.465568 
       3            0   -12.954741    -272676.7    -272676.7    -272676.7    -272676.7 -6.7800272e-12 7.5475775e-12 -1.2280804e-11     3.515645     3.515645     3.515645    43.452527 
       4            0    -12.95696   -272557.96   -272557.96   -272557.96   -272557.96 1.2796344e-11 2.9815481e-11 4.2227935e-12    3.5152933    3.5152933    3.5152933    43.439489 
       5            0   -12.959177   -272438.78   -272438.78   -272438.78   -272438.78 -3.5840518e-12 1.5616226e-11 -1.7920259e-11    3.5149417    3.5149417    3.5149417    43.426453 
       6            0   -12.961393   -272319.17   -272319.17   -272319.17   -272319.17 1.2675988e-11 -8.7067389e-12 1.5108753e-11      3.51459      3.51459      3.51459     43.41342 
       7            0   -12.963607   -272199.12   -272199.12   -272199.12   -272199.12 -1.3320187e-11 -1.1270927e-11 -6.1477786e-12    3.5142383    3.5142383    3.5142383    43.400389 
       8            0    -12.96582   -272078.63   -272078.63   -272078.63   -272078.63 2.177992e-12 -1.088996e-11 -6.2777418e-12    3.5138866    3.5138866    3.5138866    43.387362 
       9            0   -12.968031   -271957.71   -271957.71   -271957.71   -271957.71 -1.179032e-11 -1.47379e-11 -2.9988423e-11     3.513535     3.513535     3.513535    43.374336 
      10            0   -12.970241   -271836.34   -271836.34   -271836.34   -271836.34 8.2044251e-12 -5.7687364e-12 9.4863665e-12    3.5131833    3.5131833    3.5131833    43.361313 
      11            0    -12.97245   -271714.54   -271714.54   -271714.54   -271714.54 -1.3207963e-11 -4.7446079e-12 7.8221914e-12    3.5128316    3.5128316    3.5128316    43.348293 
      12            0   -12.974657   -271592.29   -271592.29   -271592.29   -271592.29 -6.7983718e-12 -2.2575725e-11 -3.1811249e-11      3.51248      3.51248      3.51248    43.335276 
      13            0   -12.976863   -271469.61   -271469.61   -271469.61   -271469.61 -1.8476597e-11 5.1323881e-12 -2.9511231e-11    3.5121283    3.5121283    3.5121283    43.322261 
      14            0   -12.979067   -271346.48   -271346.48   -271346.48   -271346.48 7.5725469e-12 1.1679691e-11 2.2974337e-11    3.5117766    3.5117766    3.5117766    43.309249 
      15            0    -12.98127    -271222.9    -271222.9    -271222.9    -271222.9 -1.3352229e-11 -3.3380573e-12 2.259608e-11     3.511425     3.511425     3.511425    43.296239 
      16            0   -12.983471   -271098.89   -271098.89   -271098.89   -271098.89 2.6969334e-12 -1.5282623e-11 -3.7243366e-12    3.5110733    3.5110733    3.5110733    43.283232 
      17            0   -12.985671   -270974.42   -270974.42   -270974.42   -270974.42 -1.991192e-11 -7.8363038e-12 2.7105903e-11    3.5107216    3.5107216    3.5107216    43.270227 
      18            0    -12.98787   -270849.52   -270849.52   -270849.52   -270849.52 8.3526696e-12 1.6833842e-11 1.8247371e-11    3.5103699    3.5103699    3.5103699    43.257226 
      19            0   -12.990067   -270724.16   -270724.16   -270724.16   -270724.16 1.0283299e-12 1.2339959e-11 -3.5734464e-11    3.5100183    3.5100183    3.5100183    43.244226 
      20            0   -12.992262   -270598.36   -270598.36   -270598.36   -270598.36 3.6002367e-12 -2.5201657e-11 -5.5289349e-12    3.5096666    3.5096666    3.5096666     43.23123 
      21            0   -12.994457   -270472.11   -270472.11   -270472.11   -270472.11 7.7171124e-13 -9.517772e-12 1.5691462e-11    3.5093149    3.5093149    3.5093149    43.218236 
      22            0   -12.996649   -270345.42   -270345.42   -270345.42   -270345.42 -3.2550275e-11 -3.3450876e-12 1.2865721e-11    3.5089633    3.5089633    3.5089633    43.205244 
      23            0    -12.99884   -270218.27   -270218.27   -270218.27   -270218.27 -8.4939297e-12 -1.6601772e-11 -2.8441795e-11    3.5086116    3.5086116    3.5086116    43.192255 
      24            0    -13.00103   -270090.67   -270090.67   -270090.67   -270090.67 4.7631806e-12 1.2487257e-11 1.2229788e-11    3.5082599    3.5082599    3.5082599    43.179269 
      25            0   -13.003218   -269962.62   -269962.62   -269962.62   -269962.62 -8.1127199e-12 1.043064e-11 -4.5070666e-12    3.5079083    3.5079083    3.5079083    43.166285 
      26            0   -13.005405   -269834.12   -269834.12   -269834.12   -269834.12 -1.7132005e-11 1.6101509e-11 2.3186172e-11    3.5075566    3.5075566    3.5075566    43.153304 
      27            0    -13.00759   -269705.17   -269705.17   -269705.17   -269705.17 1.1854275e-11 -4.8963312e-12 -4.8963312e-12    3.5072049    3.5072049    3.5072049    43.140326 
      28            0   -13.009774   -269575.76   -269575.76   -269575.76   -269575.76 2.4489022e-12 -1.2888959e-11 -3.0933501e-12    3.5068532    3.5068532    3.5068532     43.12735 
      29            0   -13.011956    -269445.9    -269445.9    -269445.9    -269445.9 3.4552803e-11 5.4149916e-12 -1.2892837e-12    3.5065016    3.5065016    3.5065016    43.114377 
      30            0   -13.014137   -269315.58   -269315.58   -269315.58   -269315.58 -1.0317374e-12 -2.140855e-11 -4.0624659e-11    3.5061499    3.5061499    3.5061499    43.101406 
      31            0   -13.016317   -269184.81   -269184.81   -269184.81   -269184.81 -5.8052693e-12 4.9022274e-12 7.998371e-12    3.5057982    3.5057982    3.5057982    43.088438 
      32            0   -13.018494   -269053.58   -269053.58   -269053.58   -269053.58 2.0260036e-11 8.0007785e-12 1.393684e-11    3.5054466    3.5054466    3.5054466    43.075473 
      33            0   -13.020671   -268921.89   -268921.89   -268921.89   -268921.89 8.2613542e-12 1.8717131e-11 4.6599201e-11    3.5050949    3.5050949    3.5050949     43.06251 
      34            0   -13.022845   -268789.75   -268789.75   -268789.75   -268789.75 2.7632219e-11 1.0071557e-11 1.5494703e-11    3.5047432    3.5047432    3.5047432     43.04955 
      35            0   -13.025019   -268657.14   -268657.14   -268657.14   -268657.14 2.221576e-11 -1.1882849e-11 1.3691108e-11    3.5043916    3.5043916    3.5043916    43.036592 
      36            0   -13.027191   -268524.08   -268524.08   -268524.08   -268524.08 4.909611e-12 -1.3695231e-11 -2.3256052e-12    3.5040399    3.5040399    3.5040399    43.023637 
      37            0   -13.029361   -268390.55   -268390.55   -268390.55   -268390.55 -5.1695679e-12 -6.4619599e-12 2.0678272e-12    3.5036882    3.5036882    3.5036882    43.010685 
      38            0    -13.03153   -268256.56   -268256.56   -268256.56   -268256.56 1.5254818e-11 1.1505753e-11 2.1589446e-11    3.5033365    3.5033365    3.5033365    42.997735 
      39            0   -13.033697   -268122.11   -268122.11   -268122.11   -268122.11 3.6208777e-12 -4.3967801e-12 2.7027266e-11    3.5029849    3.5029849    3.5029849    42.984788 
      40            0   -13.035863    -267987.2    -267987.2    -267987.2    -267987.2 1.9532758e-11 3.052802e-11 3.311514e-11    3.5026332    3.5026332    3.5026332    42.971843 
      41            0   -13.038027   -267851.82   -267851.82   -267851.82   -267851.82 -1.2680709e-11 -4.257095e-11 -2.1867753e-11    3.5022815    3.5022815    3.5022815    42.958901 
      42            0   -13.040189   -267715.97   -267715.97   -267715.97   -267715.97 1.7732454e-11 1.2943397e-13 3.6888682e-11    3.5019299    3.5019299    3.5019299    42.945961 
      43            0   -13.042351   -267579.67   -267579.67   -267579.67   -267579.67 -1.0098892e-11 -9.969419e-12 -6.0852298e-12    3.5015782    3.5015782    3.5015782    42.933025 
      44            0    -13.04451   -267442.89   -267442.89   -267442.89   -267442.89 1.1397055e-11 -7.6412075e-12 3.0046782e-11    3.5012265    3.5012265    3.5012265     42.92009 
      45            0   -13.046668   -267305.65   -267305.65   -267305.65   -267305.65 -9.3276738e-12 -3.6274287e-12 -1.1918694e-11    3.5008749    3.5008749    3.5008749    42.907159 
      46            0   -13.048825   -267167.93   -267167.93   -267167.93   -267167.93 1.1403926e-11  1.69763e-11 2.2807853e-11    3.5005232    3.5005232    3.5005232     42.89423 
      47            0    -13.05098   -267029.75   -267029.75   -267029.75   -267029.75 6.8703443e-12 2.8129523e-11 1.205551e-11    3.5001715    3.5001715    3.5001715    42.881303 
      48            0   -13.053133    -266891.1    -266891.1    -266891.1    -266891.1 -7.7800931e-13 -5.7054016e-12 5.3163969e-12    3.4998198    3.4998198    3.4998198    42.868379 
      49            0   -13.055285   -266751.98   -266751.98   -266751.98   -266751.98 2.1142292e-11 -1.738078e-11 1.5564878e-11    3.4994682    3.4994682    3.4994682    42.855458 
      50            0   -13.057435   -266612.38   -266612.38   -266612.38   -266612.38 -1.4920839e-11 -4.4113785e-12 -2.4651821e-12    3.4991165    3.4991165    3.4991165     42.84254 
      51            0   -13.059584   -266472.32   -266472.32   -266472.32   -266472.32 -3.2446388e-12 -1.5963623e-11 2.3620971e-11    3.4987648    3.4987648    3.4987648    42.829624 
      52            0   -13.061731   -266331.78   -266331.78   -266331.78   -266331.78 8.957904e-12            0 9.3473781e-12    3.4984132    3.4984132    3.4984132     42.81671 
      53            0   -13.063877   -266190.76   -266190.76   -266190.76   -266190.76 -4.4153711e-12 -2.7661001e-11 -1.246693e-11    3.4980615    3.4980615    3.4980615    42.803799 
      54            0   -13.066021   -266049.27   -266049.27   -266049.27   -266049.27 -2.7149733e-11 -2.0784485e-12 -1.9225648e-11    3.4977098    3.4977098    3.4977098    42.790891 
      55            0   -13.068163   -265907.31   -265907.31   -265907.31   -265907.31 -3.8982666e-13 1.9491333e-12 8.836071e-12    3.4973582    3.4973582    3.4973582    42.777985 
      56            0   -13.070304   -265764.86   -265764.86   -265764.86   -265764.86 1.6897585e-11 6.109127e-12 -5.5892013e-12    3.4970065    3.4970065    3.4970065    42.765082 
      57            0   -13.072444   -265621.94   -265621.94   -265621.94   -265621.94 2.4703923e-12 3.003477e-11 2.9384666e-11    3.4966548    3.4966548    3.4966548    42.752182 
      58            0   -13.074581   -265478.55   -265478.55   -265478.55   -265478.55 -9.6244315e-12 2.1980121e-11 1.4046468e-11    3.4963031    3.4963031    3.4963031    42.739284 
      59            0   -13.076718   -265334.67   -265334.67   -265334.67   -265334.67 4.8136682e-12 -5.138916e-11 -1.7823582e-11    3.4959515    3.4959515    3.4959515    42.726389 
      60            0   -13.078852   -265190.31   -265190.31   -265190.31   -265190.31 4.7240242e-11 5.7130761e-11 3.0712664e-11    3.4955998    3.4955998    3.4955998    42.713496 
      61            0   -13.080985   -265045.47   -265045.47   -265045.47   -265045.47 9.2426162e-12 1.3017769e-11 1.6142034e-11    3.4952481    3.4952481    3.4952481    42.700606 
      62            0   -13.083116   -264900.15   -264900.15   -264900.15   -264900.15 -1.1328879e-11 -3.9585966e-11 1.3282133e-11    3.4948965    3.4948965    3.4948965    42.687718 
      63            0   -13.085246   -264754.34   -264754.34   -264754.34   -264754.34 -1.7193833e-11 -9.3784544e-12 -1.094153e-11    3.4945448    3.4945448    3.4945448    42.674833 
      64            0   -13.087374   -264608.06   -264608.06   -264608.06   -264608.06 -2.3453216e-12 1.5635477e-12 -7.1662604e-12    3.4941931    3.4941931    3.4941931    42.661951 
      65            0   -13.089501   -264461.29   -264461.29   -264461.29   -264461.29 2.2026614e-11 -6.6470846e-12 2.6979343e-11    3.4938415    3.4938415    3.4938415    42.649071 
      66            0   -13.091626   -264314.03   -264314.03   -264314.03   -264314.03 1.825241e-12 1.916503e-11 -5.3453486e-12    3.4934898    3.4934898    3.4934898    42.636194 
      67            0   -13.093749   -264166.28   -264166.28   -264166.28   -264166.28 7.3031692e-12 -1.3041374e-12 -6.5206868e-12    3.4931381    3.4931381    3.4931381     42.62332 
      68            0   -13.095871   -264018.05   -264018.05   -264018.05   -264018.05 -3.1308752e-12 -6.0008441e-12 -1.4610751e-11    3.4927864    3.4927864    3.4927864    42.610448 
      69            0   -13.097991   -263869.33   -263869.33   -263869.33   -263869.33 2.2183733e-11  2.97523e-11 4.0452689e-11    3.4924348    3.4924348    3.4924348    42.597578 
      70            0    -13.10011   -263720.13   -263720.13   -263720.13   -263720.13 -4.9602149e-12 -3.0936077e-11 -2.5975862e-11    3.4920831    3.4920831    3.4920831    42.584712 
      71            0   -13.102226   -263570.43   -263570.43   -263570.43   -263570.43 -8.6177134e-12 -2.4808569e-12 2.6114283e-13    3.4917314    3.4917314    3.4917314    42.571847 
      72            0   -13.104342   -263420.24   -263420.24   -263420.24   -263420.24 -1.8024301e-11 -1.2408033e-11 -1.7632468e-11    3.4913798    3.4913798    3.4913798    42.558986 
      73            0   -13.106455   -263269.56   -263269.56   -263269.56   -263269.56 -6.5325175e-12 2.4431616e-11 -2.3647713e-11    3.4910281    3.4910281    3.4910281    42.546127 
      74            0   -13.108567   -263118.39   -263118.39   -263118.39   -263118.39 1.0455187e-12 -3.8684193e-11 -3.6070396e-11    3.4906764    3.4906764    3.4906764     42.53327 
      75            0   -13.110678   -262966.73   -262966.73   -262966.73   -262966.73 8.235949e-12 -2.9152645e-11 3.9218805e-13    3.4903248    3.4903248    3.4903248    42.520417 
      76            0   -13.112786   -262814.57   -262814.57   -262814.57   -262814.57 1.0723048e-11 -6.9307502e-12 2.0792251e-11    3.4899731    3.4899731    3.4899731    42.507565 
      77            0   -13.114893   -262661.92   -262661.92   -262661.92   -262661.92 -3.9242523e-12 1.0987907e-11 -2.6161682e-13    3.4896214    3.4896214    3.4896214    42.494717 
      78            0   -13.116999   -262508.77   -262508.77   -262508.77   -262508.77 -1.8711259e-11 1.8057019e-11 3.2581144e-11    3.4892697    3.4892697    3.4892697    42.481871 
      79            0   -13.119102   -262355.12   -262355.12   -262355.12   -262355.12 -3.2198334e-11 -5.0260814e-11 -2.0942006e-11    3.4889181    3.4889181    3.4889181    42.469027 
      80            0   -13.121204   -262200.98   -262200.98   -262200.98   -262200.98 -1.8067943e-11 1.8067943e-11 1.4401984e-12    3.4885664    3.4885664    3.4885664    42.456186 
      81            0   -13.123305   -262046.34   -262046.34   -262046.34   -262046.34 9.1676709e-13 1.6763741e-11 3.0122347e-12    3.4882147    3.4882147    3.4882147    42.443348 
      82            0   -13.125404   -261891.19   -261891.19   -261891.19   -261891.19 -2.6201269e-13 -1.5982774e-11 1.0480508e-12    3.4878631    3.4878631    3.4878631    42.430512 
      83            0   -13.127501   -261735.55   -261735.55   -261735.55   -261735.55 -2.1491541e-11 1.3890874e-11 -3.0140576e-12    3.4875114    3.4875114    3.4875114    42.417679 
      84            0   -13.129596   -261579.41   -261579.41   -261579.41   -261579.41 8.3894804e-12 -8.1273091e-12 -8.9138229e-12    3.4871597    3.4871597    3.4871597    42.404849 
      85            0    -13.13169   -261422.77   -261422.77   -261422.77   -261422.77 4.182897e-11            0 3.7632961e-11    3.4868081    3.4868081    3.4868081    42.392021 
      86            0   -13.133782   -261265.62   -261265.62   -261265.62   -261265.62 6.0335891e-12 1.3116498e-11 1.4559313e-11    3.4864564    3.4864564    3.4864564    42.379195 
      87            0   -13.135872   -261107.97   -261107.97   -261107.97   -261107.97 -9.840351e-12 -3.4244421e-11 -4.6971275e-11    3.4861047    3.4861047    3.4861047    42.366373 
      88            0   -13.137961   -260949.81   -260949.81   -260949.81   -260949.81 -1.4568128e-11 -7.8746637e-12 7.6121749e-12     3.485753     3.485753     3.485753    42.353553 
      89            0   -13.140048   -260791.15   -260791.15   -260791.15   -260791.15 -1.5754095e-12 -2.4681416e-11 -3.3214884e-11    3.4854014    3.4854014    3.4854014    42.340735 
      90            0   -13.142133   -260631.98   -260631.98   -260631.98   -260631.98 3.9397162e-13 -8.0107562e-12 -5.3711464e-11    3.4850497    3.4850497    3.4850497     42.32792 
      91            0   -13.144217   -260472.31   -260472.31   -260472.31   -260472.31            0   2.7455e-11 1.4712727e-11     3.484698     3.484698     3.484698    42.315108 
      92            0   -13.146299   -260312.13   -260312.13   -260312.13   -260312.13 -4.7305229e-12 2.2864194e-11 2.3258404e-11    3.4843464    3.4843464    3.4843464    42.302298 
      93            0   -13.148379   -260151.43   -260151.43   -260151.43   -260151.43 -7.6237062e-12 5.4680375e-11 4.6005123e-11    3.4839947    3.4839947    3.4839947    42.289491 
      94            0   -13.150457   -259990.23   -259990.23   -259990.23   -259990.23 -1.3542751e-11 3.0767027e-11 1.5777963e-11     3.483643     3.483643     3.483643    42.276686 
      95            0   -13.152534   -259828.52   -259828.52   -259828.52   -259828.52 1.1705533e-11 2.9066549e-11 2.814589e-11    3.4832914    3.4832914    3.4832914    42.263884 
      96            0   -13.154609   -259666.29   -259666.29   -259666.29   -259666.29 5.2625077e-13 1.1577517e-11 4.3415688e-12    3.4829397    3.4829397    3.4829397    42.251084 
      97            0   -13.156683   -259503.56   -259503.56   -259503.56   -259503.56 2.5004485e-12 1.6055511e-11 2.013519e-11     3.482588     3.482588     3.482588    42.238287 
      98            0   -13.158754    -259340.3    -259340.3    -259340.3    -259340.3 2.8961334e-12 -4.0809152e-12 -1.0136467e-11    3.4822363    3.4822363    3.4822363    42.225493 
      99            0   -13.160824   -259176.54   -259176.54   -259176.54   -259176.54 -4.3455165e-12 -1.1588044e-11 -3.9241331e-11    3.4818847    3.4818847    3.4818847    42.212701 
     100            0   -13.162892   -259012.26   -259012.26   -259012.26   -259012.26            0 -2.6081001e-11 -1.8045945e-11     3.481533     3.481533     3.481533    42.199912 
Loop time of 0.029783 on 1 procs for 100 steps with 4 atoms

9.9% CPU use with 1 MPI tasks x no OpenMP threads

Minimization stats:
  Stopping criterion = max iterations
  Energy initial, next-to-last, final = 
        -12.9480774253     -13.1608240595     -13.1628922437
  Force two-norm initial, final = 12.8371 11.9357
  Force max component initial, final = 7.41151 6.89106
  Final line search alpha, max atom move = 1.44994e-05 9.99164e-05
  Iterations, force evaluations = 100 100

MPI task timing breakdown:
Section |  min time  |  avg time  |  max time  |%varavg| %total
---------------------------------------------------------------
Pair    | 0.0009625  | 0.0009625  | 0.0009625  |   0.0 |  3.23
Neigh   | 0          | 0          | 0          |   0.0 |  0.00
Comm    | 0.0001967  | 0.0001967  | 0.0001967  |   0.0 |  0.66
Output  | 0.027943   | 0.027943   | 0.027943   |   0.0 | 93.82
Modify  | 0          | 0          | 0          |   0.0 |  0.00
Other   |            | 0.0006804  |            |       |  2.28

Nlocal:    4 ave 4 max 4 min
Histogram: 1 0 0 0 0 0 0 0 0 0
Nghost:    360 ave 360 max 360 min
Histogram: 1 0 0 0 0 0 0 0 0 0
Neighs:    156 ave 156 max 156 min
Histogram: 1 0 0 0 0 0 0 0 0 0

Total # of neighbors = 156
Ave neighs/atom = 39
Neighbor list builds = 0
Dangerous builds = 0

variable tmp equal pxx
variable pxx0 equal ${tmp}
variable pxx0 equal -259012.2584374
variable tmp equal pyy
variable pyy0 equal ${tmp}
variable pyy0 equal -259012.2584374
variable tmp equal pzz
variable pzz0 equal ${tmp}
variable pzz0 equal -259012.2584374
variable tmp equal pyz
variable pyz0 equal ${tmp}
variable pyz0 equal -1.80459449407474e-11
variable tmp equal pxz
variable pxz0 equal ${tmp}
variable pxz0 equal -2.60810007172846e-11
variable tmp equal pxy
variable pxy0 equal ${tmp}
variable pxy0 equal 0

variable tmp equal lx
variable lx0 equal ${tmp}
variable lx0 equal 3.48153300000002
variable tmp equal ly
variable ly0 equal ${tmp}
variable ly0 equal 3.48153300000002
variable tmp equal lz
variable lz0 equal ${tmp}
variable lz0 equal 3.48153300000002

 # ---- define the derivatives w.r.t. strain components
variable d1 equal -(v_pxx1-${pxx0})/(v_delta/v_len0)*${cfac}
variable d1 equal -(v_pxx1--259012.2584374)/(v_delta/v_len0)*${cfac}
variable d1 equal -(v_pxx1--259012.2584374)/(v_delta/v_len0)*0.0001
variable d2 equal -(v_pyy1-${pyy0})/(v_delta/v_len0)*${cfac}
variable d2 equal -(v_pyy1--259012.2584374)/(v_delta/v_len0)*${cfac}
variable d2 equal -(v_pyy1--259012.2584374)/(v_delta/v_len0)*0.0001
variable d3 equal -(v_pzz1-${pzz0})/(v_delta/v_len0)*${cfac}
variable d3 equal -(v_pzz1--259012.2584374)/(v_delta/v_len0)*${cfac}
variable d3 equal -(v_pzz1--259012.2584374)/(v_delta/v_len0)*0.0001
variable d4 equal -(v_pyz1-${pyz0})/(v_delta/v_len0)*${cfac}
variable d4 equal -(v_pyz1--1.80459449407474e-11)/(v_delta/v_len0)*${cfac}
variable d4 equal -(v_pyz1--1.80459449407474e-11)/(v_delta/v_len0)*0.0001
variable d5 equal -(v_pxz1-${pxz0})/(v_delta/v_len0)*${cfac}
variable d5 equal -(v_pxz1--2.60810007172846e-11)/(v_delta/v_len0)*${cfac}
variable d5 equal -(v_pxz1--2.60810007172846e-11)/(v_delta/v_len0)*0.0001
variable d6 equal -(v_pxy1-${pxy0})/(v_delta/v_len0)*${cfac}
variable d6 equal -(v_pxy1-0)/(v_delta/v_len0)*${cfac}
variable d6 equal -(v_pxy1-0)/(v_delta/v_len0)*0.0001

# ---- write restart files
unfix 3
write_restart restart.equil
# ---- uxx Perturbation
variable dir equal 1
include displace.mod
# NOTE: This script should not need to be
# modified. See in.elastic for more info.
# Find which reference length to use

if "${dir} == 1" then    "variable len0 equal ${lx0}"
variable len0 equal ${lx0}
variable len0 equal 3.48153300000002
if "${dir} == 2" then    "variable len0 equal ${ly0}"
if "${dir} == 3" then    "variable len0 equal ${lz0}"
if "${dir} == 4" then    "variable len0 equal ${lz0}"
if "${dir} == 5" then    "variable len0 equal ${lz0}"
if "${dir} == 6" then    "variable len0 equal ${ly0}"

# Reset box and simulation parameters

clear
read_restart restart.equil remap
  triclinic box = (0.0175835 0.0175835 0.0175835) to (3.49912 3.49912 3.49912) with tilt (0 -0 0)
  1 by 1 by 1 MPI processor grid
  4 atoms
include potential.mod
mass 1 58.6934

group Ni type 1
4 atoms in group Ni

pair_style eam/alloy
pair_coeff * * /ufrc/phillpot/eragasa/pareto_optimization_3.5NN/rank_36/Ni_fcc.lmps_elastic/Ni.eam.alloy Ni

neighbor 1.0 bin
neigh_modify every 1 delay 0 check yes
thermo	1
thermo_style custom step temp pe press pxx pyy pzz pxy pxz pyz lx ly lz vol
thermo_modify norm no

# Negative deformation

variable delta equal -${up}*${len0}
variable delta equal -1e-06*${len0}
variable delta equal -1e-06*3.48153300000002
if "${dir} == 1" then    "change_box all x delta 0 ${delta} remap units box"
change_box all x delta 0 ${delta} remap units box
change_box all x delta 0 -3.48153300000002e-06 remap units box
  triclinic box = (0.0175835 0.0175835 0.0175835) to (3.49911 3.49912 3.49912) with tilt (0 -0 0)
if "${dir} == 2" then    "change_box all y delta 0 ${delta} remap units box"
if "${dir} == 3" then    "change_box all z delta 0 ${delta} remap units box"
if "${dir} == 4" then    "change_box all yz delta ${delta} remap units box"
if "${dir} == 5" then    "change_box all xz delta ${delta} remap units box"
if "${dir} == 6" then    "change_box all xy delta ${delta} remap units box"

# Relax atoms positions

minimize ${etol} ${ftol} ${maxiter} ${maxeval}
minimize 0 ${ftol} ${maxiter} ${maxeval}
minimize 0 1e-10 ${maxiter} ${maxeval}
minimize 0 1e-10 100 ${maxeval}
minimize 0 1e-10 100 1000
Neighbor list info ...
  update every 1 steps, delay 0 steps, check yes
  max neighbors/atom: 2000, page size: 100000
  master list distance cutoff = 5.64464
  ghost atom cutoff = 5.64464
  binsize = 2.82232, bins = 2 2 2
  1 neighbor lists, perpetual/occasional/extra = 1 0 0
  (1) pair eam/alloy, perpetual
      attributes: half, newton on
      pair build: half/bin/newton/tri
      stencil: half/bin/3d/newton/tri
      bin: standard
Per MPI rank memory allocation (min/avg/max) = 4.086 | 4.086 | 4.086 Mbytes
Step Temp PotEng Press Pxx Pyy Pzz Pxy Pxz Pyz Lx Ly Lz Volume 
     100            0   -13.162899   -259011.72   -259011.49   -259011.83   -259011.83 -5.6640614e-12 -2.6344472e-12 -5.4006167e-12    3.4815295     3.481533     3.481533     42.19987 
     101            0   -13.162899   -259011.72    -259011.5   -259011.83   -259011.83 5.2688943e-13 -5.2688943e-13 1.844113e-12    3.4815295     3.481533     3.481533     42.19987 
     102            0   -13.162899   -259011.72    -259011.5   -259011.83   -259011.83 -7.2447297e-12 -2.515897e-11 -1.6992184e-11    3.4815295     3.481533     3.481533     42.19987 
Loop time of 8.89301e-05 on 1 procs for 2 steps with 4 atoms

70.8% CPU use with 1 MPI tasks x no OpenMP threads

Minimization stats:
  Stopping criterion = force tolerance
  Energy initial, next-to-last, final = 
        -13.1628990659     -13.1628990855     -13.1628990855
  Force two-norm initial, final = 0.000460783 4.66494e-15
  Force max component initial, final = 0.000133017 2.01228e-15
  Final line search alpha, max atom move = 1 2.01228e-15
  Iterations, force evaluations = 2 4

MPI task timing breakdown:
Section |  min time  |  avg time  |  max time  |%varavg| %total
---------------------------------------------------------------
Pair    | 5.1975e-05 | 5.1975e-05 | 5.1975e-05 |   0.0 | 58.45
Neigh   | 0          | 0          | 0          |   0.0 |  0.00
Comm    | 1.0252e-05 | 1.0252e-05 | 1.0252e-05 |   0.0 | 11.53
Output  | 1.0014e-05 | 1.0014e-05 | 1.0014e-05 |   0.0 | 11.26
Modify  | 0          | 0          | 0          |   0.0 |  0.00
Other   |            | 1.669e-05  |            |       | 18.77

Nlocal:    4 ave 4 max 4 min
Histogram: 1 0 0 0 0 0 0 0 0 0
Nghost:    360 ave 360 max 360 min
Histogram: 1 0 0 0 0 0 0 0 0 0
Neighs:    156 ave 156 max 156 min
Histogram: 1 0 0 0 0 0 0 0 0 0

Total # of neighbors = 156
Ave neighs/atom = 39
Neighbor list builds = 0
Dangerous builds = 0

# Obtain new stress tensor

variable tmp equal pxx
variable pxx1 equal ${tmp}
variable pxx1 equal -259011.498765254
variable tmp equal pyy
variable pyy1 equal ${tmp}
variable pyy1 equal -259011.834727921
variable tmp equal pzz
variable pzz1 equal ${tmp}
variable pzz1 equal -259011.834727921
variable tmp equal pxy
variable pxy1 equal ${tmp}
variable pxy1 equal -7.24472966619761e-12
variable tmp equal pxz
variable pxz1 equal ${tmp}
variable pxz1 equal -2.51589702953408e-11
variable tmp equal pyz
variable pyz1 equal ${tmp}
variable pyz1 equal -1.69921841261726e-11

# Compute elastic constant from pressure tensor

variable C1neg equal ${d1}
variable C1neg equal 75.9672146028606
variable C2neg equal ${d2}
variable C2neg equal 42.3709479015088
variable C3neg equal ${d3}
variable C3neg equal 42.3709479015088
variable C4neg equal ${d4}
variable C4neg equal 1.0537608145748e-10
variable C5neg equal ${d5}
variable C5neg equal 9.22030421943801e-11
variable C6neg equal ${d6}
variable C6neg equal -7.24472966619761e-10

# Reset box and simulation parameters

clear
read_restart restart.equil remap
  triclinic box = (0.0175835 0.0175835 0.0175835) to (3.49912 3.49912 3.49912) with tilt (0 -0 0)
  1 by 1 by 1 MPI processor grid
  4 atoms
include potential.mod
mass 1 58.6934

group Ni type 1
4 atoms in group Ni

pair_style eam/alloy
pair_coeff * * /ufrc/phillpot/eragasa/pareto_optimization_3.5NN/rank_36/Ni_fcc.lmps_elastic/Ni.eam.alloy Ni

neighbor 1.0 bin
neigh_modify every 1 delay 0 check yes
thermo	1
thermo_style custom step temp pe press pxx pyy pzz pxy pxz pyz lx ly lz vol
thermo_modify norm no

# Positive deformation

variable delta equal ${up}*${len0}
variable delta equal 1e-06*${len0}
variable delta equal 1e-06*3.48153300000002
if "${dir} == 1" then    "change_box all x delta 0 ${delta} remap units box"
change_box all x delta 0 ${delta} remap units box
change_box all x delta 0 3.48153300000002e-06 remap units box
  triclinic box = (0.0175835 0.0175835 0.0175835) to (3.49912 3.49912 3.49912) with tilt (0 -0 0)
if "${dir} == 2" then    "change_box all y delta 0 ${delta} remap units box"
if "${dir} == 3" then    "change_box all z delta 0 ${delta} remap units box"
if "${dir} == 4" then    "change_box all yz delta ${delta} remap units box"
if "${dir} == 5" then    "change_box all xz delta ${delta} remap units box"
if "${dir} == 6" then    "change_box all xy delta ${delta} remap units box"

# Relax atoms positions

minimize ${etol} ${ftol} ${maxiter} ${maxeval}
minimize 0 ${ftol} ${maxiter} ${maxeval}
minimize 0 1e-10 ${maxiter} ${maxeval}
minimize 0 1e-10 100 ${maxeval}
minimize 0 1e-10 100 1000
Neighbor list info ...
  update every 1 steps, delay 0 steps, check yes
  max neighbors/atom: 2000, page size: 100000
  master list distance cutoff = 5.64464
  ghost atom cutoff = 5.64464
  binsize = 2.82232, bins = 2 2 2
  1 neighbor lists, perpetual/occasional/extra = 1 0 0
  (1) pair eam/alloy, perpetual
      attributes: half, newton on
      pair build: half/bin/newton/tri
      stencil: half/bin/3d/newton/tri
      bin: standard
Per MPI rank memory allocation (min/avg/max) = 4.086 | 4.086 | 4.086 Mbytes
Step Temp PotEng Press Pxx Pyy Pzz Pxy Pxz Pyz Lx Ly Lz Volume 
     100            0   -13.162885    -259012.8   -259013.03   -259012.69   -259012.69 2.1338979e-11 5.7957721e-12 3.9780072e-11    3.4815365     3.481533     3.481533    42.199954 
     101            0   -13.162885   -259012.81   -259013.03    -259012.7    -259012.7 7.5081594e-12 1.4884597e-11 1.5806651e-12    3.4815365     3.481533     3.481533    42.199954 
     102            0   -13.162885   -259012.81   -259013.03    -259012.7    -259012.7 1.5148041e-11 -7.5081594e-12 -2.2787922e-11    3.4815365     3.481533     3.481533    42.199954 
Loop time of 8.79765e-05 on 1 procs for 2 steps with 4 atoms

75.0% CPU use with 1 MPI tasks x no OpenMP threads

Minimization stats:
  Stopping criterion = force tolerance
  Energy initial, next-to-last, final = 
        -13.1628854216     -13.1628854412     -13.1628854412
  Force two-norm initial, final = 0.000460774 1.84316e-15
  Force max component initial, final = 0.000133014 7.79758e-16
  Final line search alpha, max atom move = 1 7.79758e-16
  Iterations, force evaluations = 2 4

MPI task timing breakdown:
Section |  min time  |  avg time  |  max time  |%varavg| %total
---------------------------------------------------------------
Pair    | 5.2929e-05 | 5.2929e-05 | 5.2929e-05 |   0.0 | 60.16
Neigh   | 0          | 0          | 0          |   0.0 |  0.00
Comm    | 1.1206e-05 | 1.1206e-05 | 1.1206e-05 |   0.0 | 12.74
Output  | 9.0599e-06 | 9.0599e-06 | 9.0599e-06 |   0.0 | 10.30
Modify  | 0          | 0          | 0          |   0.0 |  0.00
Other   |            | 1.478e-05  |            |       | 16.80

Nlocal:    4 ave 4 max 4 min
Histogram: 1 0 0 0 0 0 0 0 0 0
Nghost:    360 ave 360 max 360 min
Histogram: 1 0 0 0 0 0 0 0 0 0
Neighs:    156 ave 156 max 156 min
Histogram: 1 0 0 0 0 0 0 0 0 0

Total # of neighbors = 156
Ave neighs/atom = 39
Neighbor list builds = 0
Dangerous builds = 0

# Obtain new stress tensor

variable tmp equal pe
variable e1 equal ${tmp}
variable e1 equal -13.162885441188
variable tmp equal press
variable p1 equal ${tmp}
variable p1 equal -259012.808698367
variable tmp equal pxx
variable pxx1 equal ${tmp}
variable pxx1 equal -259013.03267243
variable tmp equal pyy
variable pyy1 equal ${tmp}
variable pyy1 equal -259012.696711336
variable tmp equal pzz
variable pzz1 equal ${tmp}
variable pzz1 equal -259012.696711336
variable tmp equal pxy
variable pxy1 equal ${tmp}
variable pxy1 equal 1.51480408241194e-11
variable tmp equal pxz
variable pxz1 equal ${tmp}
variable pxz1 equal -7.50815936499832e-12
variable tmp equal pyz
variable pyz1 equal ${tmp}
variable pyz1 equal -2.27879222832405e-11

# Compute elastic constant from pressure tensor

variable C1pos equal ${d1}
variable C1pos equal 77.4235029995907
variable C2pos equal ${d2}
variable C2pos equal 43.8273935986217
variable C3pos equal ${d3}
variable C3pos equal 43.8273935986217
variable C4pos equal ${d4}
variable C4pos equal 4.7419773424931e-10
variable C5pos equal ${d5}
variable C5pos equal -1.85728413522863e-09
variable C6pos equal ${d6}
variable C6pos equal -1.51480408241194e-09

# Combine positive and negative

variable C1${dir} equal 0.5*(${C1neg}+${C1pos})
variable C11 equal 0.5*(${C1neg}+${C1pos})
variable C11 equal 0.5*(75.9672146028606+${C1pos})
variable C11 equal 0.5*(75.9672146028606+77.4235029995907)
variable C2${dir} equal 0.5*(${C2neg}+${C2pos})
variable C21 equal 0.5*(${C2neg}+${C2pos})
variable C21 equal 0.5*(42.3709479015088+${C2pos})
variable C21 equal 0.5*(42.3709479015088+43.8273935986217)
variable C3${dir} equal 0.5*(${C3neg}+${C3pos})
variable C31 equal 0.5*(${C3neg}+${C3pos})
variable C31 equal 0.5*(42.3709479015088+${C3pos})
variable C31 equal 0.5*(42.3709479015088+43.8273935986217)
variable C4${dir} equal 0.5*(${C4neg}+${C4pos})
variable C41 equal 0.5*(${C4neg}+${C4pos})
variable C41 equal 0.5*(1.0537608145748e-10+${C4pos})
variable C41 equal 0.5*(1.0537608145748e-10+4.7419773424931e-10)
variable C5${dir} equal 0.5*(${C5neg}+${C5pos})
variable C51 equal 0.5*(${C5neg}+${C5pos})
variable C51 equal 0.5*(9.22030421943801e-11+${C5pos})
variable C51 equal 0.5*(9.22030421943801e-11+-1.85728413522863e-09)
variable C6${dir} equal 0.5*(${C6neg}+${C6pos})
variable C61 equal 0.5*(${C6neg}+${C6pos})
variable C61 equal 0.5*(-7.24472966619761e-10+${C6pos})
variable C61 equal 0.5*(-7.24472966619761e-10+-1.51480408241194e-09)

# Delete dir to make sure it is not reused

variable dir delete
# ---- uyy Perturbation
variable dir equal 2
include displace.mod
# NOTE: This script should not need to be
# modified. See in.elastic for more info.
# Find which reference length to use

if "${dir} == 1" then    "variable len0 equal ${lx0}"
if "${dir} == 2" then    "variable len0 equal ${ly0}"
variable len0 equal ${ly0}
variable len0 equal 3.48153300000002
if "${dir} == 3" then    "variable len0 equal ${lz0}"
if "${dir} == 4" then    "variable len0 equal ${lz0}"
if "${dir} == 5" then    "variable len0 equal ${lz0}"
if "${dir} == 6" then    "variable len0 equal ${ly0}"

# Reset box and simulation parameters

clear
read_restart restart.equil remap
  triclinic box = (0.0175835 0.0175835 0.0175835) to (3.49912 3.49912 3.49912) with tilt (0 -0 0)
  1 by 1 by 1 MPI processor grid
  4 atoms
include potential.mod
mass 1 58.6934

group Ni type 1
4 atoms in group Ni

pair_style eam/alloy
pair_coeff * * /ufrc/phillpot/eragasa/pareto_optimization_3.5NN/rank_36/Ni_fcc.lmps_elastic/Ni.eam.alloy Ni

neighbor 1.0 bin
neigh_modify every 1 delay 0 check yes
thermo	1
thermo_style custom step temp pe press pxx pyy pzz pxy pxz pyz lx ly lz vol
thermo_modify norm no

# Negative deformation

variable delta equal -${up}*${len0}
variable delta equal -1e-06*${len0}
variable delta equal -1e-06*3.48153300000002
if "${dir} == 1" then    "change_box all x delta 0 ${delta} remap units box"
if "${dir} == 2" then    "change_box all y delta 0 ${delta} remap units box"
change_box all y delta 0 ${delta} remap units box
change_box all y delta 0 -3.48153300000002e-06 remap units box
  triclinic box = (0.0175835 0.0175835 0.0175835) to (3.49912 3.49911 3.49912) with tilt (0 -0 0)
if "${dir} == 3" then    "change_box all z delta 0 ${delta} remap units box"
if "${dir} == 4" then    "change_box all yz delta ${delta} remap units box"
if "${dir} == 5" then    "change_box all xz delta ${delta} remap units box"
if "${dir} == 6" then    "change_box all xy delta ${delta} remap units box"

# Relax atoms positions

minimize ${etol} ${ftol} ${maxiter} ${maxeval}
minimize 0 ${ftol} ${maxiter} ${maxeval}
minimize 0 1e-10 ${maxiter} ${maxeval}
minimize 0 1e-10 100 ${maxeval}
minimize 0 1e-10 100 1000
Neighbor list info ...
  update every 1 steps, delay 0 steps, check yes
  max neighbors/atom: 2000, page size: 100000
  master list distance cutoff = 5.64464
  ghost atom cutoff = 5.64464
  binsize = 2.82232, bins = 2 2 2
  1 neighbor lists, perpetual/occasional/extra = 1 0 0
  (1) pair eam/alloy, perpetual
      attributes: half, newton on
      pair build: half/bin/newton/tri
      stencil: half/bin/3d/newton/tri
      bin: standard
Per MPI rank memory allocation (min/avg/max) = 4.086 | 4.086 | 4.086 Mbytes
Step Temp PotEng Press Pxx Pyy Pzz Pxy Pxz Pyz Lx Ly Lz Volume 
     100            0   -13.162899   -259011.72   -259011.83   -259011.49   -259011.83 3.2008533e-11 1.0010899e-11 -2.3710024e-12     3.481533    3.4815295     3.481533     42.19987 
     101            0   -13.162899   -259011.72   -259011.83    -259011.5   -259011.83 -8.6936756e-12 2.5949304e-11 -1.7519074e-11     3.481533    3.4815295     3.481533     42.19987 
     102            0   -13.162899   -259011.72   -259011.83    -259011.5   -259011.83 -1.4489459e-11 1.3699125e-11 3.9516707e-13     3.481533    3.4815295     3.481533     42.19987 
Loop time of 8.60691e-05 on 1 procs for 2 steps with 4 atoms

77.8% CPU use with 1 MPI tasks x no OpenMP threads

Minimization stats:
  Stopping criterion = force tolerance
  Energy initial, next-to-last, final = 
        -13.1628990659     -13.1628990855     -13.1628990855
  Force two-norm initial, final = 0.000460783 4.17288e-15
  Force max component initial, final = 0.000133017 1.90603e-15
  Final line search alpha, max atom move = 1 1.90603e-15
  Iterations, force evaluations = 2 4

MPI task timing breakdown:
Section |  min time  |  avg time  |  max time  |%varavg| %total
---------------------------------------------------------------
Pair    | 5.1975e-05 | 5.1975e-05 | 5.1975e-05 |   0.0 | 60.39
Neigh   | 0          | 0          | 0          |   0.0 |  0.00
Comm    | 8.8215e-06 | 8.8215e-06 | 8.8215e-06 |   0.0 | 10.25
Output  | 1.0014e-05 | 1.0014e-05 | 1.0014e-05 |   0.0 | 11.63
Modify  | 0          | 0          | 0          |   0.0 |  0.00
Other   |            | 1.526e-05  |            |       | 17.73

Nlocal:    4 ave 4 max 4 min
Histogram: 1 0 0 0 0 0 0 0 0 0
Nghost:    360 ave 360 max 360 min
Histogram: 1 0 0 0 0 0 0 0 0 0
Neighs:    156 ave 156 max 156 min
Histogram: 1 0 0 0 0 0 0 0 0 0

Total # of neighbors = 156
Ave neighs/atom = 39
Neighbor list builds = 0
Dangerous builds = 0

# Obtain new stress tensor

variable tmp equal pxx
variable pxx1 equal ${tmp}
variable pxx1 equal -259011.834727921
variable tmp equal pyy
variable pyy1 equal ${tmp}
variable pyy1 equal -259011.498765254
variable tmp equal pzz
variable pzz1 equal ${tmp}
variable pzz1 equal -259011.834727921
variable tmp equal pxy
variable pxy1 equal ${tmp}
variable pxy1 equal -1.44894593323952e-11
variable tmp equal pxz
variable pxz1 equal ${tmp}
variable pxz1 equal 1.36991251869918e-11
variable tmp equal pyz
variable pyz1 equal ${tmp}
variable pyz1 equal 3.95167072701688e-13

# Compute elastic constant from pressure tensor

variable C1neg equal ${d1}
variable C1neg equal 42.3709479015088
variable C2neg equal ${d2}
variable C2neg equal 75.9672146028606
variable C3neg equal ${d3}
variable C3neg equal 42.3709479015088
variable C4neg equal ${d4}
variable C4neg equal 1.84411120134491e-09
variable C5neg equal ${d5}
variable C5neg equal 3.97801259042764e-09
variable C6neg equal ${d6}
variable C6neg equal -1.44894593323952e-09

# Reset box and simulation parameters

clear
read_restart restart.equil remap
  triclinic box = (0.0175835 0.0175835 0.0175835) to (3.49912 3.49912 3.49912) with tilt (0 -0 0)
  1 by 1 by 1 MPI processor grid
  4 atoms
include potential.mod
mass 1 58.6934

group Ni type 1
4 atoms in group Ni

pair_style eam/alloy
pair_coeff * * /ufrc/phillpot/eragasa/pareto_optimization_3.5NN/rank_36/Ni_fcc.lmps_elastic/Ni.eam.alloy Ni

neighbor 1.0 bin
neigh_modify every 1 delay 0 check yes
thermo	1
thermo_style custom step temp pe press pxx pyy pzz pxy pxz pyz lx ly lz vol
thermo_modify norm no

# Positive deformation

variable delta equal ${up}*${len0}
variable delta equal 1e-06*${len0}
variable delta equal 1e-06*3.48153300000002
if "${dir} == 1" then    "change_box all x delta 0 ${delta} remap units box"
if "${dir} == 2" then    "change_box all y delta 0 ${delta} remap units box"
change_box all y delta 0 ${delta} remap units box
change_box all y delta 0 3.48153300000002e-06 remap units box
  triclinic box = (0.0175835 0.0175835 0.0175835) to (3.49912 3.49912 3.49912) with tilt (0 -0 0)
if "${dir} == 3" then    "change_box all z delta 0 ${delta} remap units box"
if "${dir} == 4" then    "change_box all yz delta ${delta} remap units box"
if "${dir} == 5" then    "change_box all xz delta ${delta} remap units box"
if "${dir} == 6" then    "change_box all xy delta ${delta} remap units box"

# Relax atoms positions

minimize ${etol} ${ftol} ${maxiter} ${maxeval}
minimize 0 ${ftol} ${maxiter} ${maxeval}
minimize 0 1e-10 ${maxiter} ${maxeval}
minimize 0 1e-10 100 ${maxeval}
minimize 0 1e-10 100 1000
Neighbor list info ...
  update every 1 steps, delay 0 steps, check yes
  max neighbors/atom: 2000, page size: 100000
  master list distance cutoff = 5.64464
  ghost atom cutoff = 5.64464
  binsize = 2.82232, bins = 2 2 2
  1 neighbor lists, perpetual/occasional/extra = 1 0 0
  (1) pair eam/alloy, perpetual
      attributes: half, newton on
      pair build: half/bin/newton/tri
      stencil: half/bin/3d/newton/tri
      bin: standard
Per MPI rank memory allocation (min/avg/max) = 4.086 | 4.086 | 4.086 Mbytes
Step Temp PotEng Press Pxx Pyy Pzz Pxy Pxz Pyz Lx Ly Lz Volume 
     100            0   -13.162885    -259012.8   -259012.69   -259013.03   -259012.69 9.747435e-12 -1.3172209e-12 8.8253803e-12     3.481533    3.4815365     3.481533    42.199954 
     101            0   -13.162885   -259012.81    -259012.7   -259013.03    -259012.7 -5.4006059e-12 1.066949e-11 1.4357708e-11     3.481533    3.4815365     3.481533    42.199954 
     102            0   -13.162885   -259012.81    -259012.7   -259013.03    -259012.7            0 -2.5685808e-11 1.2250155e-11     3.481533    3.4815365     3.481533    42.199954 
Loop time of 8.60691e-05 on 1 procs for 2 steps with 4 atoms

80.2% CPU use with 1 MPI tasks x no OpenMP threads

Minimization stats:
  Stopping criterion = force tolerance
  Energy initial, next-to-last, final = 
        -13.1628854216     -13.1628854412     -13.1628854412
  Force two-norm initial, final = 0.000460774 2.04144e-15
  Force max component initial, final = 0.000133014 9.15934e-16
  Final line search alpha, max atom move = 1 9.15934e-16
  Iterations, force evaluations = 2 4

MPI task timing breakdown:
Section |  min time  |  avg time  |  max time  |%varavg| %total
---------------------------------------------------------------
Pair    | 5.0068e-05 | 5.0068e-05 | 5.0068e-05 |   0.0 | 58.17
Neigh   | 0          | 0          | 0          |   0.0 |  0.00
Comm    | 1.0252e-05 | 1.0252e-05 | 1.0252e-05 |   0.0 | 11.91
Output  | 1.0014e-05 | 1.0014e-05 | 1.0014e-05 |   0.0 | 11.63
Modify  | 0          | 0          | 0          |   0.0 |  0.00
Other   |            | 1.574e-05  |            |       | 18.28

Nlocal:    4 ave 4 max 4 min
Histogram: 1 0 0 0 0 0 0 0 0 0
Nghost:    360 ave 360 max 360 min
Histogram: 1 0 0 0 0 0 0 0 0 0
Neighs:    156 ave 156 max 156 min
Histogram: 1 0 0 0 0 0 0 0 0 0

Total # of neighbors = 156
Ave neighs/atom = 39
Neighbor list builds = 0
Dangerous builds = 0

# Obtain new stress tensor

variable tmp equal pe
variable e1 equal ${tmp}
variable e1 equal -13.162885441188
variable tmp equal press
variable p1 equal ${tmp}
variable p1 equal -259012.808698367
variable tmp equal pxx
variable pxx1 equal ${tmp}
variable pxx1 equal -259012.696711336
variable tmp equal pyy
variable pyy1 equal ${tmp}
variable pyy1 equal -259013.03267243
variable tmp equal pzz
variable pzz1 equal ${tmp}
variable pzz1 equal -259012.696711336
variable tmp equal pxy
variable pxy1 equal ${tmp}
variable pxy1 equal 0
variable tmp equal pxz
variable pxz1 equal ${tmp}
variable pxz1 equal -2.56858083539416e-11
variable tmp equal pyz
variable pyz1 equal ${tmp}
variable pyz1 equal 1.22501547534183e-11

# Compute elastic constant from pressure tensor

variable C1pos equal ${d1}
variable C1pos equal 43.8273935986217
variable C2pos equal ${d2}
variable C2pos equal 77.4235029995907
variable C3pos equal ${d3}
variable C3pos equal 43.8273935986217
variable C4pos equal ${d4}
variable C4pos equal -3.02960996941657e-09
variable C5pos equal ${d5}
variable C5pos equal -3.95192363343e-11
variable C6pos equal ${d6}
variable C6pos equal -0

# Combine positive and negative

variable C1${dir} equal 0.5*(${C1neg}+${C1pos})
variable C12 equal 0.5*(${C1neg}+${C1pos})
variable C12 equal 0.5*(42.3709479015088+${C1pos})
variable C12 equal 0.5*(42.3709479015088+43.8273935986217)
variable C2${dir} equal 0.5*(${C2neg}+${C2pos})
variable C22 equal 0.5*(${C2neg}+${C2pos})
variable C22 equal 0.5*(75.9672146028606+${C2pos})
variable C22 equal 0.5*(75.9672146028606+77.4235029995907)
variable C3${dir} equal 0.5*(${C3neg}+${C3pos})
variable C32 equal 0.5*(${C3neg}+${C3pos})
variable C32 equal 0.5*(42.3709479015088+${C3pos})
variable C32 equal 0.5*(42.3709479015088+43.8273935986217)
variable C4${dir} equal 0.5*(${C4neg}+${C4pos})
variable C42 equal 0.5*(${C4neg}+${C4pos})
variable C42 equal 0.5*(1.84411120134491e-09+${C4pos})
variable C42 equal 0.5*(1.84411120134491e-09+-3.02960996941657e-09)
variable C5${dir} equal 0.5*(${C5neg}+${C5pos})
variable C52 equal 0.5*(${C5neg}+${C5pos})
variable C52 equal 0.5*(3.97801259042764e-09+${C5pos})
variable C52 equal 0.5*(3.97801259042764e-09+-3.95192363343e-11)
variable C6${dir} equal 0.5*(${C6neg}+${C6pos})
variable C62 equal 0.5*(${C6neg}+${C6pos})
variable C62 equal 0.5*(-1.44894593323952e-09+${C6pos})
variable C62 equal 0.5*(-1.44894593323952e-09+-0)

# Delete dir to make sure it is not reused

variable dir delete
# ---- uzz Perturbation
variable dir equal 3
include displace.mod
# NOTE: This script should not need to be
# modified. See in.elastic for more info.
# Find which reference length to use

if "${dir} == 1" then    "variable len0 equal ${lx0}"
if "${dir} == 2" then    "variable len0 equal ${ly0}"
if "${dir} == 3" then    "variable len0 equal ${lz0}"
variable len0 equal ${lz0}
variable len0 equal 3.48153300000002
if "${dir} == 4" then    "variable len0 equal ${lz0}"
if "${dir} == 5" then    "variable len0 equal ${lz0}"
if "${dir} == 6" then    "variable len0 equal ${ly0}"

# Reset box and simulation parameters

clear
read_restart restart.equil remap
  triclinic box = (0.0175835 0.0175835 0.0175835) to (3.49912 3.49912 3.49912) with tilt (0 -0 0)
  1 by 1 by 1 MPI processor grid
  4 atoms
include potential.mod
mass 1 58.6934

group Ni type 1
4 atoms in group Ni

pair_style eam/alloy
pair_coeff * * /ufrc/phillpot/eragasa/pareto_optimization_3.5NN/rank_36/Ni_fcc.lmps_elastic/Ni.eam.alloy Ni

neighbor 1.0 bin
neigh_modify every 1 delay 0 check yes
thermo	1
thermo_style custom step temp pe press pxx pyy pzz pxy pxz pyz lx ly lz vol
thermo_modify norm no

# Negative deformation

variable delta equal -${up}*${len0}
variable delta equal -1e-06*${len0}
variable delta equal -1e-06*3.48153300000002
if "${dir} == 1" then    "change_box all x delta 0 ${delta} remap units box"
if "${dir} == 2" then    "change_box all y delta 0 ${delta} remap units box"
if "${dir} == 3" then    "change_box all z delta 0 ${delta} remap units box"
change_box all z delta 0 ${delta} remap units box
change_box all z delta 0 -3.48153300000002e-06 remap units box
  triclinic box = (0.0175835 0.0175835 0.0175835) to (3.49912 3.49912 3.49911) with tilt (0 -0 0)
if "${dir} == 4" then    "change_box all yz delta ${delta} remap units box"
if "${dir} == 5" then    "change_box all xz delta ${delta} remap units box"
if "${dir} == 6" then    "change_box all xy delta ${delta} remap units box"

# Relax atoms positions

minimize ${etol} ${ftol} ${maxiter} ${maxeval}
minimize 0 ${ftol} ${maxiter} ${maxeval}
minimize 0 1e-10 ${maxiter} ${maxeval}
minimize 0 1e-10 100 ${maxeval}
minimize 0 1e-10 100 1000
Neighbor list info ...
  update every 1 steps, delay 0 steps, check yes
  max neighbors/atom: 2000, page size: 100000
  master list distance cutoff = 5.64464
  ghost atom cutoff = 5.64464
  binsize = 2.82232, bins = 2 2 2
  1 neighbor lists, perpetual/occasional/extra = 1 0 0
  (1) pair eam/alloy, perpetual
      attributes: half, newton on
      pair build: half/bin/newton/tri
      stencil: half/bin/3d/newton/tri
      bin: standard
Per MPI rank memory allocation (min/avg/max) = 4.086 | 4.086 | 4.086 Mbytes
Step Temp PotEng Press Pxx Pyy Pzz Pxy Pxz Pyz Lx Ly Lz Volume 
     100            0   -13.162899   -259011.72   -259011.83   -259011.83   -259011.49 5.2688943e-12 1.5674961e-11 5.308411e-11     3.481533     3.481533    3.4815295     42.19987 
     101            0   -13.162899   -259011.72   -259011.83   -259011.83    -259011.5 2.4895526e-11 8.825398e-12 4.6102825e-12     3.481533     3.481533    3.4815295     42.19987 
     102            0   -13.162899   -259011.72   -259011.83   -259011.83    -259011.5 1.7914241e-11 -1.0406066e-11 -2.3183135e-11     3.481533     3.481533    3.4815295     42.19987 
Loop time of 8.60691e-05 on 1 procs for 2 steps with 4 atoms

81.3% CPU use with 1 MPI tasks x no OpenMP threads

Minimization stats:
  Stopping criterion = force tolerance
  Energy initial, next-to-last, final = 
        -13.1628990659     -13.1628990855     -13.1628990855
  Force two-norm initial, final = 0.000460783 3.66462e-15
  Force max component initial, final = 0.000133017 1.16573e-15
  Final line search alpha, max atom move = 1 1.16573e-15
  Iterations, force evaluations = 2 4

MPI task timing breakdown:
Section |  min time  |  avg time  |  max time  |%varavg| %total
---------------------------------------------------------------
Pair    | 5.0783e-05 | 5.0783e-05 | 5.0783e-05 |   0.0 | 59.00
Neigh   | 0          | 0          | 0          |   0.0 |  0.00
Comm    | 1.0252e-05 | 1.0252e-05 | 1.0252e-05 |   0.0 | 11.91
Output  | 9.0599e-06 | 9.0599e-06 | 9.0599e-06 |   0.0 | 10.53
Modify  | 0          | 0          | 0          |   0.0 |  0.00
Other   |            | 1.597e-05  |            |       | 18.56

Nlocal:    4 ave 4 max 4 min
Histogram: 1 0 0 0 0 0 0 0 0 0
Nghost:    360 ave 360 max 360 min
Histogram: 1 0 0 0 0 0 0 0 0 0
Neighs:    156 ave 156 max 156 min
Histogram: 1 0 0 0 0 0 0 0 0 0

Total # of neighbors = 156
Ave neighs/atom = 39
Neighbor list builds = 0
Dangerous builds = 0

# Obtain new stress tensor

variable tmp equal pxx
variable pxx1 equal ${tmp}
variable pxx1 equal -259011.834727921
variable tmp equal pyy
variable pyy1 equal ${tmp}
variable pyy1 equal -259011.834727921
variable tmp equal pzz
variable pzz1 equal ${tmp}
variable pzz1 equal -259011.498765255
variable tmp equal pxy
variable pxy1 equal ${tmp}
variable pxy1 equal 1.79142406291432e-11
variable tmp equal pxz
variable pxz1 equal ${tmp}
variable pxz1 equal -1.04060662478111e-11
variable tmp equal pyz
variable pyz1 equal ${tmp}
variable pyz1 equal -2.31831349318324e-11

# Compute elastic constant from pressure tensor

variable C1neg equal ${d1}
variable C1neg equal 42.3709479015088
variable C2neg equal ${d2}
variable C2neg equal 42.3709479015088
variable C3neg equal ${d3}
variable C3neg equal 75.9672145009972
variable C4neg equal ${d4}
variable C4neg equal -5.137189991085e-10
variable C5neg equal ${d5}
variable C5neg equal 1.56749344694735e-09
variable C6neg equal ${d6}
variable C6neg equal 1.79142406291432e-09

# Reset box and simulation parameters

clear
read_restart restart.equil remap
  triclinic box = (0.0175835 0.0175835 0.0175835) to (3.49912 3.49912 3.49912) with tilt (0 -0 0)
  1 by 1 by 1 MPI processor grid
  4 atoms
include potential.mod
mass 1 58.6934

group Ni type 1
4 atoms in group Ni

pair_style eam/alloy
pair_coeff * * /ufrc/phillpot/eragasa/pareto_optimization_3.5NN/rank_36/Ni_fcc.lmps_elastic/Ni.eam.alloy Ni

neighbor 1.0 bin
neigh_modify every 1 delay 0 check yes
thermo	1
thermo_style custom step temp pe press pxx pyy pzz pxy pxz pyz lx ly lz vol
thermo_modify norm no

# Positive deformation

variable delta equal ${up}*${len0}
variable delta equal 1e-06*${len0}
variable delta equal 1e-06*3.48153300000002
if "${dir} == 1" then    "change_box all x delta 0 ${delta} remap units box"
if "${dir} == 2" then    "change_box all y delta 0 ${delta} remap units box"
if "${dir} == 3" then    "change_box all z delta 0 ${delta} remap units box"
change_box all z delta 0 ${delta} remap units box
change_box all z delta 0 3.48153300000002e-06 remap units box
  triclinic box = (0.0175835 0.0175835 0.0175835) to (3.49912 3.49912 3.49912) with tilt (0 -0 0)
if "${dir} == 4" then    "change_box all yz delta ${delta} remap units box"
if "${dir} == 5" then    "change_box all xz delta ${delta} remap units box"
if "${dir} == 6" then    "change_box all xy delta ${delta} remap units box"

# Relax atoms positions

minimize ${etol} ${ftol} ${maxiter} ${maxeval}
minimize 0 ${ftol} ${maxiter} ${maxeval}
minimize 0 1e-10 ${maxiter} ${maxeval}
minimize 0 1e-10 100 ${maxeval}
minimize 0 1e-10 100 1000
Neighbor list info ...
  update every 1 steps, delay 0 steps, check yes
  max neighbors/atom: 2000, page size: 100000
  master list distance cutoff = 5.64464
  ghost atom cutoff = 5.64464
  binsize = 2.82232, bins = 2 2 2
  1 neighbor lists, perpetual/occasional/extra = 1 0 0
  (1) pair eam/alloy, perpetual
      attributes: half, newton on
      pair build: half/bin/newton/tri
      stencil: half/bin/3d/newton/tri
      bin: standard
Per MPI rank memory allocation (min/avg/max) = 4.086 | 4.086 | 4.086 Mbytes
Step Temp PotEng Press Pxx Pyy Pzz Pxy Pxz Pyz Lx Ly Lz Volume 
     100            0   -13.162885    -259012.8   -259012.69   -259012.69   -259013.03 2.450031e-11 3.0296082e-12 2.0021758e-11     3.481533     3.481533    3.4815365    42.199954 
     101            0   -13.162885   -259012.81    -259012.7    -259012.7   -259013.03 -3.2930524e-12 -1.5279763e-11 -7.7716036e-12     3.481533     3.481533    3.4815365    42.199954 
     102            0   -13.162885   -259012.81    -259012.7    -259012.7   -259013.03 -2.1865868e-11 -9.0888245e-12 2.7925084e-11     3.481533     3.481533    3.4815365    42.199954 
Loop time of 9.29832e-05 on 1 procs for 2 steps with 4 atoms

101.1% CPU use with 1 MPI tasks x no OpenMP threads

Minimization stats:
  Stopping criterion = force tolerance
  Energy initial, next-to-last, final = 
        -13.1628854216     -13.1628854412     -13.1628854412
  Force two-norm initial, final = 0.000460774 2.16063e-15
  Force max component initial, final = 0.000133014 8.04912e-16
  Final line search alpha, max atom move = 1 8.04912e-16
  Iterations, force evaluations = 2 4

MPI task timing breakdown:
Section |  min time  |  avg time  |  max time  |%varavg| %total
---------------------------------------------------------------
Pair    | 5.7936e-05 | 5.7936e-05 | 5.7936e-05 |   0.0 | 62.31
Neigh   | 0          | 0          | 0          |   0.0 |  0.00
Comm    | 1.0967e-05 | 1.0967e-05 | 1.0967e-05 |   0.0 | 11.79
Output  | 1.0014e-05 | 1.0014e-05 | 1.0014e-05 |   0.0 | 10.77
Modify  | 0          | 0          | 0          |   0.0 |  0.00
Other   |            | 1.407e-05  |            |       | 15.13

Nlocal:    4 ave 4 max 4 min
Histogram: 1 0 0 0 0 0 0 0 0 0
Nghost:    360 ave 360 max 360 min
Histogram: 1 0 0 0 0 0 0 0 0 0
Neighs:    156 ave 156 max 156 min
Histogram: 1 0 0 0 0 0 0 0 0 0

Total # of neighbors = 156
Ave neighs/atom = 39
Neighbor list builds = 0
Dangerous builds = 0

# Obtain new stress tensor

variable tmp equal pe
variable e1 equal ${tmp}
variable e1 equal -13.162885441188
variable tmp equal press
variable p1 equal ${tmp}
variable p1 equal -259012.808698367
variable tmp equal pxx
variable pxx1 equal ${tmp}
variable pxx1 equal -259012.696711336
variable tmp equal pyy
variable pyy1 equal ${tmp}
variable pyy1 equal -259012.696711336
variable tmp equal pzz
variable pzz1 equal ${tmp}
variable pzz1 equal -259013.03267243
variable tmp equal pxy
variable pxy1 equal ${tmp}
variable pxy1 equal -2.18658676243811e-11
variable tmp equal pxz
variable pxz1 equal ${tmp}
variable pxz1 equal -9.08882449447165e-12
variable tmp equal pyz
variable pyz1 equal ${tmp}
variable pyz1 equal 2.79250839540288e-11

# Compute elastic constant from pressure tensor

variable C1pos equal ${d1}
variable C1pos equal 43.8273935986217
variable C2pos equal ${d2}
variable C2pos equal 43.8273935986217
variable C3pos equal ${d3}
variable C3pos equal 77.4235029995907
variable C4pos equal ${d4}
variable C4pos equal -4.59710288947762e-09
variable C5pos equal ${d5}
variable C5pos equal -1.6992176222813e-09
variable C6pos equal ${d6}
variable C6pos equal 2.18658676243811e-09

# Combine positive and negative

variable C1${dir} equal 0.5*(${C1neg}+${C1pos})
variable C13 equal 0.5*(${C1neg}+${C1pos})
variable C13 equal 0.5*(42.3709479015088+${C1pos})
variable C13 equal 0.5*(42.3709479015088+43.8273935986217)
variable C2${dir} equal 0.5*(${C2neg}+${C2pos})
variable C23 equal 0.5*(${C2neg}+${C2pos})
variable C23 equal 0.5*(42.3709479015088+${C2pos})
variable C23 equal 0.5*(42.3709479015088+43.8273935986217)
variable C3${dir} equal 0.5*(${C3neg}+${C3pos})
variable C33 equal 0.5*(${C3neg}+${C3pos})
variable C33 equal 0.5*(75.9672145009972+${C3pos})
variable C33 equal 0.5*(75.9672145009972+77.4235029995907)
variable C4${dir} equal 0.5*(${C4neg}+${C4pos})
variable C43 equal 0.5*(${C4neg}+${C4pos})
variable C43 equal 0.5*(-5.137189991085e-10+${C4pos})
variable C43 equal 0.5*(-5.137189991085e-10+-4.59710288947762e-09)
variable C5${dir} equal 0.5*(${C5neg}+${C5pos})
variable C53 equal 0.5*(${C5neg}+${C5pos})
variable C53 equal 0.5*(1.56749344694735e-09+${C5pos})
variable C53 equal 0.5*(1.56749344694735e-09+-1.6992176222813e-09)
variable C6${dir} equal 0.5*(${C6neg}+${C6pos})
variable C63 equal 0.5*(${C6neg}+${C6pos})
variable C63 equal 0.5*(1.79142406291432e-09+${C6pos})
variable C63 equal 0.5*(1.79142406291432e-09+2.18658676243811e-09)

# Delete dir to make sure it is not reused

variable dir delete
# ---- uyz Perturbation
variable dir equal 4
include displace.mod
# NOTE: This script should not need to be
# modified. See in.elastic for more info.
# Find which reference length to use

if "${dir} == 1" then    "variable len0 equal ${lx0}"
if "${dir} == 2" then    "variable len0 equal ${ly0}"
if "${dir} == 3" then    "variable len0 equal ${lz0}"
if "${dir} == 4" then    "variable len0 equal ${lz0}"
variable len0 equal ${lz0}
variable len0 equal 3.48153300000002
if "${dir} == 5" then    "variable len0 equal ${lz0}"
if "${dir} == 6" then    "variable len0 equal ${ly0}"

# Reset box and simulation parameters

clear
read_restart restart.equil remap
  triclinic box = (0.0175835 0.0175835 0.0175835) to (3.49912 3.49912 3.49912) with tilt (0 -0 0)
  1 by 1 by 1 MPI processor grid
  4 atoms
include potential.mod
mass 1 58.6934

group Ni type 1
4 atoms in group Ni

pair_style eam/alloy
pair_coeff * * /ufrc/phillpot/eragasa/pareto_optimization_3.5NN/rank_36/Ni_fcc.lmps_elastic/Ni.eam.alloy Ni

neighbor 1.0 bin
neigh_modify every 1 delay 0 check yes
thermo	1
thermo_style custom step temp pe press pxx pyy pzz pxy pxz pyz lx ly lz vol
thermo_modify norm no

# Negative deformation

variable delta equal -${up}*${len0}
variable delta equal -1e-06*${len0}
variable delta equal -1e-06*3.48153300000002
if "${dir} == 1" then    "change_box all x delta 0 ${delta} remap units box"
if "${dir} == 2" then    "change_box all y delta 0 ${delta} remap units box"
if "${dir} == 3" then    "change_box all z delta 0 ${delta} remap units box"
if "${dir} == 4" then    "change_box all yz delta ${delta} remap units box"
change_box all yz delta ${delta} remap units box
change_box all yz delta -3.48153300000002e-06 remap units box
  triclinic box = (0.0175835 0.0175835 0.0175835) to (3.49912 3.49912 3.49912) with tilt (0 -0 -3.48153e-06)
if "${dir} == 5" then    "change_box all xz delta ${delta} remap units box"
if "${dir} == 6" then    "change_box all xy delta ${delta} remap units box"

# Relax atoms positions

minimize ${etol} ${ftol} ${maxiter} ${maxeval}
minimize 0 ${ftol} ${maxiter} ${maxeval}
minimize 0 1e-10 ${maxiter} ${maxeval}
minimize 0 1e-10 100 ${maxeval}
minimize 0 1e-10 100 1000
Neighbor list info ...
  update every 1 steps, delay 0 steps, check yes
  max neighbors/atom: 2000, page size: 100000
  master list distance cutoff = 5.64464
  ghost atom cutoff = 5.64464
  binsize = 2.82232, bins = 2 2 2
  1 neighbor lists, perpetual/occasional/extra = 1 0 0
  (1) pair eam/alloy, perpetual
      attributes: half, newton on
      pair build: half/bin/newton/tri
      stencil: half/bin/3d/newton/tri
      bin: standard
Per MPI rank memory allocation (min/avg/max) = 4.086 | 4.086 | 4.086 Mbytes
Step Temp PotEng Press Pxx Pyy Pzz Pxy Pxz Pyz Lx Ly Lz Volume 
     100            0   -13.162892   -259012.26   -259012.26   -259012.26   -259012.26 8.2985002e-12 8.0350558e-12   0.38889153     3.481533     3.481533     3.481533    42.199912 
     101            0   -13.162892   -259012.27   -259012.27   -259012.27   -259012.27 1.6201834e-11 -1.1064667e-11   0.38889153     3.481533     3.481533     3.481533    42.199912 
     102            0   -13.162892   -259012.27   -259012.27   -259012.27   -259012.27 -2.1075556e-12 1.4489445e-12   0.38889153     3.481533     3.481533     3.481533    42.199912 
     103            0   -13.162892   -259012.27   -259012.27   -259012.27   -259012.27 1.0010889e-11 -2.6344445e-13   0.38889153     3.481533     3.481533     3.481533    42.199912 
Loop time of 0.000118971 on 1 procs for 3 steps with 4 atoms

83.2% CPU use with 1 MPI tasks x no OpenMP threads

Minimization stats:
  Stopping criterion = force tolerance
  Energy initial, next-to-last, final = 
        -13.1628922437     -13.1628922633     -13.1628922633
  Force two-norm initial, final = 0.000460779 1.51628e-15
  Force max component initial, final = 0.000133016 7.21645e-16
  Final line search alpha, max atom move = 1 7.21645e-16
  Iterations, force evaluations = 3 6

MPI task timing breakdown:
Section |  min time  |  avg time  |  max time  |%varavg| %total
---------------------------------------------------------------
Pair    | 7.081e-05  | 7.081e-05  | 7.081e-05  |   0.0 | 59.52
Neigh   | 0          | 0          | 0          |   0.0 |  0.00
Comm    | 1.5974e-05 | 1.5974e-05 | 1.5974e-05 |   0.0 | 13.43
Output  | 1.7881e-05 | 1.7881e-05 | 1.7881e-05 |   0.0 | 15.03
Modify  | 0          | 0          | 0          |   0.0 |  0.00
Other   |            | 1.431e-05  |            |       | 12.02

Nlocal:    4 ave 4 max 4 min
Histogram: 1 0 0 0 0 0 0 0 0 0
Nghost:    360 ave 360 max 360 min
Histogram: 1 0 0 0 0 0 0 0 0 0
Neighs:    156 ave 156 max 156 min
Histogram: 1 0 0 0 0 0 0 0 0 0

Total # of neighbors = 156
Ave neighs/atom = 39
Neighbor list builds = 0
Dangerous builds = 0

# Obtain new stress tensor

variable tmp equal pxx
variable pxx1 equal ${tmp}
variable pxx1 equal -259012.265722893
variable tmp equal pyy
variable pyy1 equal ${tmp}
variable pyy1 equal -259012.265721258
variable tmp equal pzz
variable pzz1 equal ${tmp}
variable pzz1 equal -259012.265720648
variable tmp equal pxy
variable pxy1 equal ${tmp}
variable pxy1 equal 1.00108891642102e-11
variable tmp equal pxz
variable pxz1 equal ${tmp}
variable pxz1 equal -2.63444451689743e-13
variable tmp equal pyz
variable pyz1 equal ${tmp}
variable pyz1 equal 0.388891531380015

# Compute elastic constant from pressure tensor

variable C1neg equal ${d1}
variable C1neg equal -0.728549298946746
variable C2neg equal ${d2}
variable C2neg equal -0.728385799448006
variable C3neg equal ${d3}
variable C3neg equal -0.728324797819369
variable C4neg equal ${d4}
variable C4neg equal 38.8891531398061
variable C5neg equal ${d5}
variable C5neg equal 2.58175562655949e-09
variable C6neg equal ${d6}
variable C6neg equal 1.00108891642102e-09

# Reset box and simulation parameters

clear
read_restart restart.equil remap
  triclinic box = (0.0175835 0.0175835 0.0175835) to (3.49912 3.49912 3.49912) with tilt (0 -0 0)
  1 by 1 by 1 MPI processor grid
  4 atoms
include potential.mod
mass 1 58.6934

group Ni type 1
4 atoms in group Ni

pair_style eam/alloy
pair_coeff * * /ufrc/phillpot/eragasa/pareto_optimization_3.5NN/rank_36/Ni_fcc.lmps_elastic/Ni.eam.alloy Ni

neighbor 1.0 bin
neigh_modify every 1 delay 0 check yes
thermo	1
thermo_style custom step temp pe press pxx pyy pzz pxy pxz pyz lx ly lz vol
thermo_modify norm no

# Positive deformation

variable delta equal ${up}*${len0}
variable delta equal 1e-06*${len0}
variable delta equal 1e-06*3.48153300000002
if "${dir} == 1" then    "change_box all x delta 0 ${delta} remap units box"
if "${dir} == 2" then    "change_box all y delta 0 ${delta} remap units box"
if "${dir} == 3" then    "change_box all z delta 0 ${delta} remap units box"
if "${dir} == 4" then    "change_box all yz delta ${delta} remap units box"
change_box all yz delta ${delta} remap units box
change_box all yz delta 3.48153300000002e-06 remap units box
  triclinic box = (0.0175835 0.0175835 0.0175835) to (3.49912 3.49912 3.49912) with tilt (0 -0 3.48153e-06)
if "${dir} == 5" then    "change_box all xz delta ${delta} remap units box"
if "${dir} == 6" then    "change_box all xy delta ${delta} remap units box"

# Relax atoms positions

minimize ${etol} ${ftol} ${maxiter} ${maxeval}
minimize 0 ${ftol} ${maxiter} ${maxeval}
minimize 0 1e-10 ${maxiter} ${maxeval}
minimize 0 1e-10 100 ${maxeval}
minimize 0 1e-10 100 1000
Neighbor list info ...
  update every 1 steps, delay 0 steps, check yes
  max neighbors/atom: 2000, page size: 100000
  master list distance cutoff = 5.64464
  ghost atom cutoff = 5.64464
  binsize = 2.82232, bins = 2 2 2
  1 neighbor lists, perpetual/occasional/extra = 1 0 0
  (1) pair eam/alloy, perpetual
      attributes: half, newton on
      pair build: half/bin/newton/tri
      stencil: half/bin/3d/newton/tri
      bin: standard
Per MPI rank memory allocation (min/avg/max) = 4.086 | 4.086 | 4.086 Mbytes
Step Temp PotEng Press Pxx Pyy Pzz Pxy Pxz Pyz Lx Ly Lz Volume 
     100            0   -13.162892   -259012.26   -259012.26   -259012.26   -259012.26   1.6597e-11 1.4752889e-11  -0.38889153     3.481533     3.481533     3.481533    42.199912 
     101            0   -13.162892   -259012.27   -259012.27   -259012.27   -259012.27 2.7134779e-11 2.7134779e-11  -0.38889153     3.481533     3.481533     3.481533    42.199912 
     102            0   -13.162892   -259012.27   -259012.27   -259012.27   -259012.27 8.4302225e-12 1.5806667e-12  -0.38889153     3.481533     3.481533     3.481533    42.199912 
     103            0   -13.162892   -259012.27   -259012.27   -259012.27   -259012.27 -1.2513611e-11 -6.7178335e-12  -0.38889153     3.481533     3.481533     3.481533    42.199912 
Loop time of 0.000116825 on 1 procs for 3 steps with 4 atoms

85.6% CPU use with 1 MPI tasks x no OpenMP threads

Minimization stats:
  Stopping criterion = force tolerance
  Energy initial, next-to-last, final = 
        -13.1628922437     -13.1628922633     -13.1628922633
  Force two-norm initial, final = 0.000460779 1.56284e-15
  Force max component initial, final = 0.000133016 9.4369e-16
  Final line search alpha, max atom move = 1 9.4369e-16
  Iterations, force evaluations = 3 6

MPI task timing breakdown:
Section |  min time  |  avg time  |  max time  |%varavg| %total
---------------------------------------------------------------
Pair    | 6.8903e-05 | 6.8903e-05 | 6.8903e-05 |   0.0 | 58.98
Neigh   | 0          | 0          | 0          |   0.0 |  0.00
Comm    | 1.4067e-05 | 1.4067e-05 | 1.4067e-05 |   0.0 | 12.04
Output  | 1.7166e-05 | 1.7166e-05 | 1.7166e-05 |   0.0 | 14.69
Modify  | 0          | 0          | 0          |   0.0 |  0.00
Other   |            | 1.669e-05  |            |       | 14.29

Nlocal:    4 ave 4 max 4 min
Histogram: 1 0 0 0 0 0 0 0 0 0
Nghost:    360 ave 360 max 360 min
Histogram: 1 0 0 0 0 0 0 0 0 0
Neighs:    156 ave 156 max 156 min
Histogram: 1 0 0 0 0 0 0 0 0 0

Total # of neighbors = 156
Ave neighs/atom = 39
Neighbor list builds = 0
Dangerous builds = 0

# Obtain new stress tensor

variable tmp equal pe
variable e1 equal ${tmp}
variable e1 equal -13.1628922633471
variable tmp equal press
variable p1 equal ${tmp}
variable p1 equal -259012.2657216
variable tmp equal pxx
variable pxx1 equal ${tmp}
variable pxx1 equal -259012.265722893
variable tmp equal pyy
variable pyy1 equal ${tmp}
variable pyy1 equal -259012.265721258
variable tmp equal pzz
variable pzz1 equal ${tmp}
variable pzz1 equal -259012.265720648
variable tmp equal pxy
variable pxy1 equal ${tmp}
variable pxy1 equal -1.25136114552628e-11
variable tmp equal pxz
variable pxz1 equal ${tmp}
variable pxz1 equal -6.71783351808845e-12
variable tmp equal pyz
variable pyz1 equal ${tmp}
variable pyz1 equal -0.388891531357622

# Compute elastic constant from pressure tensor

variable C1pos equal ${d1}
variable C1pos equal 0.728549298946746
variable C2pos equal ${d2}
variable C2pos equal 0.728385799448006
variable C3pos equal ${d3}
variable C3pos equal 0.728324797819369
variable C4pos equal ${d4}
variable C4pos equal 38.8891531339576
variable C5pos equal ${d5}
variable C5pos equal -1.93631671991962e-09
variable C6pos equal ${d6}
variable C6pos equal 1.25136114552628e-09

# Combine positive and negative

variable C1${dir} equal 0.5*(${C1neg}+${C1pos})
variable C14 equal 0.5*(${C1neg}+${C1pos})
variable C14 equal 0.5*(-0.728549298946746+${C1pos})
variable C14 equal 0.5*(-0.728549298946746+0.728549298946746)
variable C2${dir} equal 0.5*(${C2neg}+${C2pos})
variable C24 equal 0.5*(${C2neg}+${C2pos})
variable C24 equal 0.5*(-0.728385799448006+${C2pos})
variable C24 equal 0.5*(-0.728385799448006+0.728385799448006)
variable C3${dir} equal 0.5*(${C3neg}+${C3pos})
variable C34 equal 0.5*(${C3neg}+${C3pos})
variable C34 equal 0.5*(-0.728324797819369+${C3pos})
variable C34 equal 0.5*(-0.728324797819369+0.728324797819369)
variable C4${dir} equal 0.5*(${C4neg}+${C4pos})
variable C44 equal 0.5*(${C4neg}+${C4pos})
variable C44 equal 0.5*(38.8891531398061+${C4pos})
variable C44 equal 0.5*(38.8891531398061+38.8891531339576)
variable C5${dir} equal 0.5*(${C5neg}+${C5pos})
variable C54 equal 0.5*(${C5neg}+${C5pos})
variable C54 equal 0.5*(2.58175562655949e-09+${C5pos})
variable C54 equal 0.5*(2.58175562655949e-09+-1.93631671991962e-09)
variable C6${dir} equal 0.5*(${C6neg}+${C6pos})
variable C64 equal 0.5*(${C6neg}+${C6pos})
variable C64 equal 0.5*(1.00108891642102e-09+${C6pos})
variable C64 equal 0.5*(1.00108891642102e-09+1.25136114552628e-09)

# Delete dir to make sure it is not reused

variable dir delete
# ---- uxz Perturbation
variable dir equal 5
include displace.mod
# NOTE: This script should not need to be
# modified. See in.elastic for more info.
# Find which reference length to use

if "${dir} == 1" then    "variable len0 equal ${lx0}"
if "${dir} == 2" then    "variable len0 equal ${ly0}"
if "${dir} == 3" then    "variable len0 equal ${lz0}"
if "${dir} == 4" then    "variable len0 equal ${lz0}"
if "${dir} == 5" then    "variable len0 equal ${lz0}"
variable len0 equal ${lz0}
variable len0 equal 3.48153300000002
if "${dir} == 6" then    "variable len0 equal ${ly0}"

# Reset box and simulation parameters

clear
read_restart restart.equil remap
  triclinic box = (0.0175835 0.0175835 0.0175835) to (3.49912 3.49912 3.49912) with tilt (0 -0 0)
  1 by 1 by 1 MPI processor grid
  4 atoms
include potential.mod
mass 1 58.6934

group Ni type 1
4 atoms in group Ni

pair_style eam/alloy
pair_coeff * * /ufrc/phillpot/eragasa/pareto_optimization_3.5NN/rank_36/Ni_fcc.lmps_elastic/Ni.eam.alloy Ni

neighbor 1.0 bin
neigh_modify every 1 delay 0 check yes
thermo	1
thermo_style custom step temp pe press pxx pyy pzz pxy pxz pyz lx ly lz vol
thermo_modify norm no

# Negative deformation

variable delta equal -${up}*${len0}
variable delta equal -1e-06*${len0}
variable delta equal -1e-06*3.48153300000002
if "${dir} == 1" then    "change_box all x delta 0 ${delta} remap units box"
if "${dir} == 2" then    "change_box all y delta 0 ${delta} remap units box"
if "${dir} == 3" then    "change_box all z delta 0 ${delta} remap units box"
if "${dir} == 4" then    "change_box all yz delta ${delta} remap units box"
if "${dir} == 5" then    "change_box all xz delta ${delta} remap units box"
change_box all xz delta ${delta} remap units box
change_box all xz delta -3.48153300000002e-06 remap units box
  triclinic box = (0.0175835 0.0175835 0.0175835) to (3.49912 3.49912 3.49912) with tilt (0 -3.48153e-06 0)
if "${dir} == 6" then    "change_box all xy delta ${delta} remap units box"

# Relax atoms positions

minimize ${etol} ${ftol} ${maxiter} ${maxeval}
minimize 0 ${ftol} ${maxiter} ${maxeval}
minimize 0 1e-10 ${maxiter} ${maxeval}
minimize 0 1e-10 100 ${maxeval}
minimize 0 1e-10 100 1000
Neighbor list info ...
  update every 1 steps, delay 0 steps, check yes
  max neighbors/atom: 2000, page size: 100000
  master list distance cutoff = 5.64464
  ghost atom cutoff = 5.64464
  binsize = 2.82232, bins = 2 2 2
  1 neighbor lists, perpetual/occasional/extra = 1 0 0
  (1) pair eam/alloy, perpetual
      attributes: half, newton on
      pair build: half/bin/newton/tri
      stencil: half/bin/3d/newton/tri
      bin: standard
Per MPI rank memory allocation (min/avg/max) = 4.086 | 4.086 | 4.086 Mbytes
Step Temp PotEng Press Pxx Pyy Pzz Pxy Pxz Pyz Lx Ly Lz Volume 
     100            0   -13.162892   -259012.26   -259012.26   -259012.26   -259012.26 9.0888336e-12   0.38889153 -2.0548667e-11     3.481533     3.481533     3.481533    42.199912 
     101            0   -13.162892   -259012.27   -259012.27   -259012.27   -259012.27 3.1086445e-11   0.38889153 -3.1613334e-12     3.481533     3.481533     3.481533    42.199912 
     102            0   -13.162892   -259012.27   -259012.27   -259012.27   -259012.27 -6.1909446e-12   0.38889153 -2.897889e-12     3.481533     3.481533     3.481533    42.199912 
     103            0   -13.162892   -259012.27   -259012.27   -259012.27   -259012.27 -1.8309389e-11   0.38889153 4.6102779e-12     3.481533     3.481533     3.481533    42.199912 
Loop time of 0.000119925 on 1 procs for 3 steps with 4 atoms

85.9% CPU use with 1 MPI tasks x no OpenMP threads

Minimization stats:
  Stopping criterion = force tolerance
  Energy initial, next-to-last, final = 
        -13.1628922437     -13.1628922633     -13.1628922633
  Force two-norm initial, final = 0.000460779 1.24427e-15
  Force max component initial, final = 0.000133016 6.66134e-16
  Final line search alpha, max atom move = 1 6.66134e-16
  Iterations, force evaluations = 3 6

MPI task timing breakdown:
Section |  min time  |  avg time  |  max time  |%varavg| %total
---------------------------------------------------------------
Pair    | 7.0333e-05 | 7.0333e-05 | 7.0333e-05 |   0.0 | 58.65
Neigh   | 0          | 0          | 0          |   0.0 |  0.00
Comm    | 1.6451e-05 | 1.6451e-05 | 1.6451e-05 |   0.0 | 13.72
Output  | 1.6928e-05 | 1.6928e-05 | 1.6928e-05 |   0.0 | 14.12
Modify  | 0          | 0          | 0          |   0.0 |  0.00
Other   |            | 1.621e-05  |            |       | 13.52

Nlocal:    4 ave 4 max 4 min
Histogram: 1 0 0 0 0 0 0 0 0 0
Nghost:    360 ave 360 max 360 min
Histogram: 1 0 0 0 0 0 0 0 0 0
Neighs:    156 ave 156 max 156 min
Histogram: 1 0 0 0 0 0 0 0 0 0

Total # of neighbors = 156
Ave neighs/atom = 39
Neighbor list builds = 0
Dangerous builds = 0

# Obtain new stress tensor

variable tmp equal pxx
variable pxx1 equal ${tmp}
variable pxx1 equal -259012.265721258
variable tmp equal pyy
variable pyy1 equal ${tmp}
variable pyy1 equal -259012.265722893
variable tmp equal pzz
variable pzz1 equal ${tmp}
variable pzz1 equal -259012.265720648
variable tmp equal pxy
variable pxy1 equal ${tmp}
variable pxy1 equal -1.83093893924372e-11
variable tmp equal pxz
variable pxz1 equal ${tmp}
variable pxz1 equal 0.388891531397534
variable tmp equal pyz
variable pyz1 equal ${tmp}
variable pyz1 equal 4.61027790457051e-12

# Compute elastic constant from pressure tensor

variable C1neg equal ${d1}
variable C1neg equal -0.728385799448006
variable C2neg equal ${d2}
variable C2neg equal -0.728549298946746
variable C3neg equal ${d3}
variable C3neg equal -0.728324797819369
variable C4neg equal ${d4}
variable C4neg equal 2.26562228453179e-09
variable C5neg equal ${d5}
variable C5neg equal 38.8891531423615
variable C6neg equal ${d6}
variable C6neg equal -1.83093893924372e-09

# Reset box and simulation parameters

clear
read_restart restart.equil remap
  triclinic box = (0.0175835 0.0175835 0.0175835) to (3.49912 3.49912 3.49912) with tilt (0 -0 0)
  1 by 1 by 1 MPI processor grid
  4 atoms
include potential.mod
mass 1 58.6934

group Ni type 1
4 atoms in group Ni

pair_style eam/alloy
pair_coeff * * /ufrc/phillpot/eragasa/pareto_optimization_3.5NN/rank_36/Ni_fcc.lmps_elastic/Ni.eam.alloy Ni

neighbor 1.0 bin
neigh_modify every 1 delay 0 check yes
thermo	1
thermo_style custom step temp pe press pxx pyy pzz pxy pxz pyz lx ly lz vol
thermo_modify norm no

# Positive deformation

variable delta equal ${up}*${len0}
variable delta equal 1e-06*${len0}
variable delta equal 1e-06*3.48153300000002
if "${dir} == 1" then    "change_box all x delta 0 ${delta} remap units box"
if "${dir} == 2" then    "change_box all y delta 0 ${delta} remap units box"
if "${dir} == 3" then    "change_box all z delta 0 ${delta} remap units box"
if "${dir} == 4" then    "change_box all yz delta ${delta} remap units box"
if "${dir} == 5" then    "change_box all xz delta ${delta} remap units box"
change_box all xz delta ${delta} remap units box
change_box all xz delta 3.48153300000002e-06 remap units box
[...]
  Iterations, force evaluations = 3 6

MPI task timing breakdown:
Section |  min time  |  avg time  |  max time  |%varavg| %total
---------------------------------------------------------------
Pair    | 7.0333e-05 | 7.0333e-05 | 7.0333e-05 |   0.0 | 59.12
Neigh   | 0          | 0          | 0          |   0.0 |  0.00
Comm    | 1.6689e-05 | 1.6689e-05 | 1.6689e-05 |   0.0 | 14.03
Output  | 1.7166e-05 | 1.7166e-05 | 1.7166e-05 |   0.0 | 14.43
Modify  | 0          | 0          | 0          |   0.0 |  0.00
Other   |            | 1.478e-05  |            |       | 12.42

Nlocal:    4 ave 4 max 4 min
Histogram: 1 0 0 0 0 0 0 0 0 0
Nghost:    360 ave 360 max 360 min
Histogram: 1 0 0 0 0 0 0 0 0 0
Neighs:    156 ave 156 max 156 min
Histogram: 1 0 0 0 0 0 0 0 0 0

Total # of neighbors = 156
Ave neighs/atom = 39
Neighbor list builds = 0
Dangerous builds = 0

# Obtain new stress tensor

variable tmp equal pe
variable e1 equal ${tmp}
variable e1 equal -13.162892263347
variable tmp equal press
variable p1 equal ${tmp}
variable p1 equal -259012.2657216
variable tmp equal pxx
variable pxx1 equal ${tmp}
variable pxx1 equal -259012.265721258
variable tmp equal pyy
variable pyy1 equal ${tmp}
variable pyy1 equal -259012.265722893
variable tmp equal pzz
variable pzz1 equal ${tmp}
variable pzz1 equal -259012.265720648
variable tmp equal pxy
variable pxy1 equal ${tmp}
variable pxy1 equal -1.05377780675897e-12
variable tmp equal pxz
variable pxz1 equal ${tmp}
variable pxz1 equal -0.388891531348006
variable tmp equal pyz
variable pyz1 equal ${tmp}
variable pyz1 equal 2.30513895228525e-11

# Compute elastic constant from pressure tensor

variable C1pos equal ${d1}
variable C1pos equal 0.728385799448006
variable C2pos equal ${d2}
variable C2pos equal 0.728549298946746
variable C3pos equal ${d3}
variable C3pos equal 0.728324797819369
variable C4pos equal ${d4}
variable C4pos equal -4.10973344635999e-09
variable C5pos equal ${d5}
variable C5pos equal 38.8891531321925
variable C6pos equal ${d6}
variable C6pos equal 1.05377780675897e-10

# Combine positive and negative

variable C1${dir} equal 0.5*(${C1neg}+${C1pos})
variable C15 equal 0.5*(${C1neg}+${C1pos})
variable C15 equal 0.5*(-0.728385799448006+${C1pos})
variable C15 equal 0.5*(-0.728385799448006+0.728385799448006)
variable C2${dir} equal 0.5*(${C2neg}+${C2pos})
variable C25 equal 0.5*(${C2neg}+${C2pos})
variable C25 equal 0.5*(-0.728549298946746+${C2pos})
variable C25 equal 0.5*(-0.728549298946746+0.728549298946746)
variable C3${dir} equal 0.5*(${C3neg}+${C3pos})
variable C35 equal 0.5*(${C3neg}+${C3pos})
variable C35 equal 0.5*(-0.728324797819369+${C3pos})
variable C35 equal 0.5*(-0.728324797819369+0.728324797819369)
variable C4${dir} equal 0.5*(${C4neg}+${C4pos})
variable C45 equal 0.5*(${C4neg}+${C4pos})
variable C45 equal 0.5*(2.26562228453179e-09+${C4pos})
variable C45 equal 0.5*(2.26562228453179e-09+-4.10973344635999e-09)
variable C5${dir} equal 0.5*(${C5neg}+${C5pos})
variable C55 equal 0.5*(${C5neg}+${C5pos})
variable C55 equal 0.5*(38.8891531423615+${C5pos})
variable C55 equal 0.5*(38.8891531423615+38.8891531321925)
variable C6${dir} equal 0.5*(${C6neg}+${C6pos})
variable C65 equal 0.5*(${C6neg}+${C6pos})
variable C65 equal 0.5*(-1.83093893924372e-09+${C6pos})
variable C65 equal 0.5*(-1.83093893924372e-09+1.05377780675897e-10)

# Delete dir to make sure it is not reused

variable dir delete
# ---- uxy Perturbation
variable dir equal 6
include displace.mod
# NOTE: This script should not need to be
# modified. See in.elastic for more info.
# Find which reference length to use

if "${dir} == 1" then    "variable len0 equal ${lx0}"
if "${dir} == 2" then    "variable len0 equal ${ly0}"
if "${dir} == 3" then    "variable len0 equal ${lz0}"
if "${dir} == 4" then    "variable len0 equal ${lz0}"
if "${dir} == 5" then    "variable len0 equal ${lz0}"
if "${dir} == 6" then    "variable len0 equal ${ly0}"
variable len0 equal ${ly0}
variable len0 equal 3.48153300000002

# Reset box and simulation parameters

clear
read_restart restart.equil remap
  triclinic box = (0.0175835 0.0175835 0.0175835) to (3.49912 3.49912 3.49912) with tilt (0 -0 0)
  1 by 1 by 1 MPI processor grid
  4 atoms
include potential.mod
mass 1 58.6934

group Ni type 1
4 atoms in group Ni

pair_style eam/alloy
pair_coeff * * /ufrc/phillpot/eragasa/pareto_optimization_3.5NN/rank_36/Ni_fcc.lmps_elastic/Ni.eam.alloy Ni

neighbor 1.0 bin
neigh_modify every 1 delay 0 check yes
thermo	1
thermo_style custom step temp pe press pxx pyy pzz pxy pxz pyz lx ly lz vol
thermo_modify norm no

# Negative deformation

variable delta equal -${up}*${len0}
variable delta equal -1e-06*${len0}
variable delta equal -1e-06*3.48153300000002
if "${dir} == 1" then    "change_box all x delta 0 ${delta} remap units box"
if "${dir} == 2" then    "change_box all y delta 0 ${delta} remap units box"
if "${dir} == 3" then    "change_box all z delta 0 ${delta} remap units box"
if "${dir} == 4" then    "change_box all yz delta ${delta} remap units box"
if "${dir} == 5" then    "change_box all xz delta ${delta} remap units box"
if "${dir} == 6" then    "change_box all xy delta ${delta} remap units box"
change_box all xy delta ${delta} remap units box
change_box all xy delta -3.48153300000002e-06 remap units box
  triclinic box = (0.0175835 0.0175835 0.0175835) to (3.49912 3.49912 3.49912) with tilt (-3.48153e-06 -0 0)

# Relax atoms positions

minimize ${etol} ${ftol} ${maxiter} ${maxeval}
minimize 0 ${ftol} ${maxiter} ${maxeval}
minimize 0 1e-10 ${maxiter} ${maxeval}
minimize 0 1e-10 100 ${maxeval}
minimize 0 1e-10 100 1000
Neighbor list info ...
  update every 1 steps, delay 0 steps, check yes
  max neighbors/atom: 2000, page size: 100000
  master list distance cutoff = 5.64464
  ghost atom cutoff = 5.64464
  binsize = 2.82232, bins = 2 2 2
  1 neighbor lists, perpetual/occasional/extra = 1 0 0
  (1) pair eam/alloy, perpetual
      attributes: half, newton on
      pair build: half/bin/newton/tri
      stencil: half/bin/3d/newton/tri
      bin: standard
Per MPI rank memory allocation (min/avg/max) = 4.086 | 4.086 | 4.086 Mbytes
Step Temp PotEng Press Pxx Pyy Pzz Pxy Pxz Pyz Lx Ly Lz Volume 
     100            0   -13.162892   -259012.26   -259012.26   -259012.26   -259012.26   0.38889153 -2.1075556e-12 2.5027223e-12     3.481533     3.481533     3.481533    42.199912 
     101            0   -13.162892   -259012.27   -259012.27   -259012.27   -259012.27   0.38889153 1.5279778e-11 9.352278e-12     3.481533     3.481533     3.481533    42.199912 
     102            0   -13.162892   -259012.27   -259012.27   -259012.27   -259012.27   0.38889153 9.2205558e-13 -6.8495557e-12     3.481533     3.481533     3.481533    42.199912 
     103            0   -13.162892   -259012.27   -259012.27   -259012.27   -259012.27   0.38889153 2.1075556e-12  1.30405e-11     3.481533     3.481533     3.481533    42.199912 
Loop time of 0.000123978 on 1 procs for 3 steps with 4 atoms

85.5% CPU use with 1 MPI tasks x no OpenMP threads

Minimization stats:
  Stopping criterion = force tolerance
  Energy initial, next-to-last, final = 
        -13.1628922437     -13.1628922633     -13.1628922633
  Force two-norm initial, final = 0.000460779 1.35089e-15
  Force max component initial, final = 0.000133016 9.71445e-16
  Final line search alpha, max atom move = 1 9.71445e-16
  Iterations, force evaluations = 3 6

MPI task timing breakdown:
Section |  min time  |  avg time  |  max time  |%varavg| %total
---------------------------------------------------------------
Pair    | 7.081e-05  | 7.081e-05  | 7.081e-05  |   0.0 | 57.12
Neigh   | 0          | 0          | 0          |   0.0 |  0.00
Comm    | 1.4544e-05 | 1.4544e-05 | 1.4544e-05 |   0.0 | 11.73
Output  | 1.8835e-05 | 1.8835e-05 | 1.8835e-05 |   0.0 | 15.19
Modify  | 0          | 0          | 0          |   0.0 |  0.00
Other   |            | 1.979e-05  |            |       | 15.96

Nlocal:    4 ave 4 max 4 min
Histogram: 1 0 0 0 0 0 0 0 0 0
Nghost:    360 ave 360 max 360 min
Histogram: 1 0 0 0 0 0 0 0 0 0
Neighs:    156 ave 156 max 156 min
Histogram: 1 0 0 0 0 0 0 0 0 0

Total # of neighbors = 156
Ave neighs/atom = 39
Neighbor list builds = 0
Dangerous builds = 0

# Obtain new stress tensor

variable tmp equal pxx
variable pxx1 equal ${tmp}
variable pxx1 equal -259012.265721258
variable tmp equal pyy
variable pyy1 equal ${tmp}
variable pyy1 equal -259012.265720648
variable tmp equal pzz
variable pzz1 equal ${tmp}
variable pzz1 equal -259012.265722893
variable tmp equal pxy
variable pxy1 equal ${tmp}
variable pxy1 equal 0.388891531339313
variable tmp equal pxz
variable pxz1 equal ${tmp}
variable pxz1 equal 2.10755561351795e-12
variable tmp equal pyz
variable pyz1 equal ${tmp}
variable pyz1 equal 1.30405003586423e-11

# Compute elastic constant from pressure tensor

variable C1neg equal ${d1}
variable C1neg equal -0.728385799448006
variable C2neg equal ${d2}
variable C2neg equal -0.728324797819369
variable C3neg equal ${d3}
variable C3neg equal -0.728549298946746
variable C4neg equal ${d4}
variable C4neg equal 3.10864452993897e-09
variable C5neg equal ${d5}
variable C5neg equal 2.81885563308026e-09
variable C6neg equal ${d6}
variable C6neg equal 38.8891531339313

# Reset box and simulation parameters

clear
read_restart restart.equil remap
  triclinic box = (0.0175835 0.0175835 0.0175835) to (3.49912 3.49912 3.49912) with tilt (0 -0 0)
  1 by 1 by 1 MPI processor grid
  4 atoms
include potential.mod
mass 1 58.6934

group Ni type 1
4 atoms in group Ni

pair_style eam/alloy
pair_coeff * * /ufrc/phillpot/eragasa/pareto_optimization_3.5NN/rank_36/Ni_fcc.lmps_elastic/Ni.eam.alloy Ni

neighbor 1.0 bin
neigh_modify every 1 delay 0 check yes
thermo	1
thermo_style custom step temp pe press pxx pyy pzz pxy pxz pyz lx ly lz vol
thermo_modify norm no

# Positive deformation

variable delta equal ${up}*${len0}
variable delta equal 1e-06*${len0}
variable delta equal 1e-06*3.48153300000002
if "${dir} == 1" then    "change_box all x delta 0 ${delta} remap units box"
if "${dir} == 2" then    "change_box all y delta 0 ${delta} remap units box"
if "${dir} == 3" then    "change_box all z delta 0 ${delta} remap units box"
if "${dir} == 4" then    "change_box all yz delta ${delta} remap units box"
if "${dir} == 5" then    "change_box all xz delta ${delta} remap units box"
if "${dir} == 6" then    "change_box all xy delta ${delta} remap units box"
change_box all xy delta ${delta} remap units box
change_box all xy delta 3.48153300000002e-06 remap units box
  triclinic box = (0.0175835 0.0175835 0.0175835) to (3.49912 3.49912 3.49912) with tilt (3.48153e-06 -0 0)

# Relax atoms positions

minimize ${etol} ${ftol} ${maxiter} ${maxeval}
minimize 0 ${ftol} ${maxiter} ${maxeval}
minimize 0 1e-10 ${maxiter} ${maxeval}
minimize 0 1e-10 100 ${maxeval}
minimize 0 1e-10 100 1000
Neighbor list info ...
  update every 1 steps, delay 0 steps, check yes
  max neighbors/atom: 2000, page size: 100000
  master list distance cutoff = 5.64464
  ghost atom cutoff = 5.64464
  binsize = 2.82232, bins = 2 2 2
  1 neighbor lists, perpetual/occasional/extra = 1 0 0
  (1) pair eam/alloy, perpetual
      attributes: half, newton on
      pair build: half/bin/newton/tri
      stencil: half/bin/3d/newton/tri
      bin: standard
Per MPI rank memory allocation (min/avg/max) = 4.086 | 4.086 | 4.086 Mbytes
Step Temp PotEng Press Pxx Pyy Pzz Pxy Pxz Pyz Lx Ly Lz Volume 
     100            0   -13.162892   -259012.26   -259012.26   -259012.26   -259012.26  -0.38889153 4.8737224e-11 -3.7672557e-11     3.481533     3.481533     3.481533    42.199912 
     101            0   -13.162892   -259012.27   -259012.27   -259012.27   -259012.27  -0.38889153 -1.0142611e-11 -4.1492501e-11     3.481533     3.481533     3.481533    42.199912 
     102            0   -13.162892   -259012.27   -259012.27   -259012.27   -259012.27  -0.38889153 4.2809723e-11 1.4357723e-11     3.481533     3.481533     3.481533    42.199912 
     103            0   -13.162892   -259012.27   -259012.27   -259012.27   -259012.27  -0.38889153 4.5180723e-11 2.1207278e-11     3.481533     3.481533     3.481533    42.199912 
Loop time of 0.000121832 on 1 procs for 3 steps with 4 atoms

100.1% CPU use with 1 MPI tasks x no OpenMP threads

Minimization stats:
  Stopping criterion = force tolerance
  Energy initial, next-to-last, final = 
        -13.1628922437     -13.1628922633     -13.1628922633
  Force two-norm initial, final = 0.000460779 1.5719e-15
  Force max component initial, final = 0.000133016 9.71445e-16
  Final line search alpha, max atom move = 1 9.71445e-16
  Iterations, force evaluations = 3 6

MPI task timing breakdown:
Section |  min time  |  avg time  |  max time  |%varavg| %total
---------------------------------------------------------------
Pair    | 7.5817e-05 | 7.5817e-05 | 7.5817e-05 |   0.0 | 62.23
Neigh   | 0          | 0          | 0          |   0.0 |  0.00
Comm    | 1.2875e-05 | 1.2875e-05 | 1.2875e-05 |   0.0 | 10.57
Output  | 1.7881e-05 | 1.7881e-05 | 1.7881e-05 |   0.0 | 14.68
Modify  | 0          | 0          | 0          |   0.0 |  0.00
Other   |            | 1.526e-05  |            |       | 12.52

Nlocal:    4 ave 4 max 4 min
Histogram: 1 0 0 0 0 0 0 0 0 0
Nghost:    360 ave 360 max 360 min
Histogram: 1 0 0 0 0 0 0 0 0 0
Neighs:    156 ave 156 max 156 min
Histogram: 1 0 0 0 0 0 0 0 0 0

Total # of neighbors = 156
Ave neighs/atom = 39
Neighbor list builds = 0
Dangerous builds = 0

# Obtain new stress tensor

variable tmp equal pe
variable e1 equal ${tmp}
variable e1 equal -13.162892263347
variable tmp equal press
variable p1 equal ${tmp}
variable p1 equal -259012.2657216
variable tmp equal pxx
variable pxx1 equal ${tmp}
variable pxx1 equal -259012.265721258
variable tmp equal pyy
variable pyy1 equal ${tmp}
variable pyy1 equal -259012.265720648
variable tmp equal pzz
variable pzz1 equal ${tmp}
variable pzz1 equal -259012.265722893
variable tmp equal pxy
variable pxy1 equal ${tmp}
variable pxy1 equal -0.388891531354724
variable tmp equal pxz
variable pxz1 equal ${tmp}
variable pxz1 equal 4.5180723464791e-11
variable tmp equal pyz
variable pyz1 equal ${tmp}
variable pyz1 equal 2.12072783610243e-11

# Compute elastic constant from pressure tensor

variable C1pos equal ${d1}
variable C1pos equal 0.728385799448006
variable C2pos equal ${d2}
variable C2pos equal 0.728324797819369
variable C3pos equal ${d3}
variable C3pos equal 0.728549298946746
variable C4pos equal ${d4}
variable C4pos equal -3.92532233017717e-09
variable C5pos equal ${d5}
variable C5pos equal -7.12617241820756e-09
variable C6pos equal ${d6}
variable C6pos equal 38.8891531354724

# Combine positive and negative

variable C1${dir} equal 0.5*(${C1neg}+${C1pos})
variable C16 equal 0.5*(${C1neg}+${C1pos})
variable C16 equal 0.5*(-0.728385799448006+${C1pos})
variable C16 equal 0.5*(-0.728385799448006+0.728385799448006)
variable C2${dir} equal 0.5*(${C2neg}+${C2pos})
variable C26 equal 0.5*(${C2neg}+${C2pos})
variable C26 equal 0.5*(-0.728324797819369+${C2pos})
variable C26 equal 0.5*(-0.728324797819369+0.728324797819369)
variable C3${dir} equal 0.5*(${C3neg}+${C3pos})
variable C36 equal 0.5*(${C3neg}+${C3pos})
variable C36 equal 0.5*(-0.728549298946746+${C3pos})
variable C36 equal 0.5*(-0.728549298946746+0.728549298946746)
variable C4${dir} equal 0.5*(${C4neg}+${C4pos})
variable C46 equal 0.5*(${C4neg}+${C4pos})
variable C46 equal 0.5*(3.10864452993897e-09+${C4pos})
variable C46 equal 0.5*(3.10864452993897e-09+-3.92532233017717e-09)
variable C5${dir} equal 0.5*(${C5neg}+${C5pos})
variable C56 equal 0.5*(${C5neg}+${C5pos})
variable C56 equal 0.5*(2.81885563308026e-09+${C5pos})
variable C56 equal 0.5*(2.81885563308026e-09+-7.12617241820756e-09)
variable C6${dir} equal 0.5*(${C6neg}+${C6pos})
variable C66 equal 0.5*(${C6neg}+${C6pos})
variable C66 equal 0.5*(38.8891531339313+${C6pos})
variable C66 equal 0.5*(38.8891531339313+38.8891531354724)

# Delete dir to make sure it is not reused

variable dir delete

# ---- Output final values
variable C11all equal ${C11}
variable C11all equal 76.6953588012256
variable C22all equal ${C22}
variable C22all equal 76.6953588012256
variable C33all equal ${C33}
variable C33all equal 76.6953587502939
variable C12all equal 0.5*(${C12}+${C21})
variable C12all equal 0.5*(43.0991707500652+${C21})
variable C12all equal 0.5*(43.0991707500652+43.0991707500652)
variable C13all equal 0.5*(${C13}+${C31})
variable C13all equal 0.5*(43.0991707500652+${C31})
variable C13all equal 0.5*(43.0991707500652+43.0991707500652)
variable C23all equal 0.5*(${C23}+${C32})
variable C23all equal 0.5*(43.0991707500652+${C32})
variable C23all equal 0.5*(43.0991707500652+43.0991707500652)
variable C44all equal ${C44}
variable C44all equal 38.8891531368818
variable C55all equal ${C55}
variable C55all equal 38.889153137277
variable C66all equal ${C66}
variable C66all equal 38.8891531347018
variable C14all equal 0.5*(${C14}+${C41})
variable C14all equal 0.5*(0+${C41})
variable C14all equal 0.5*(0+2.89786907853395e-10)
variable C15all equal 0.5*(${C15}+${C51})
variable C15all equal 0.5*(0+${C51})
variable C15all equal 0.5*(0+-8.82540546517125e-10)
variable C16all equal 0.5*(${C16}+${C61})
variable C16all equal 0.5*(0+${C61})
variable C16all equal 0.5*(0+-1.11963852451585e-09)
variable C24all equal 0.5*(${C24}+${C42})
variable C24all equal 0.5*(0+${C42})
variable C24all equal 0.5*(0+-5.9274938403583e-10)
variable C25all equal 0.5*(${C25}+${C52})
variable C25all equal 0.5*(0+${C52})
variable C25all equal 0.5*(0+1.96924667704667e-09)
variable C26all equal 0.5*(${C26}+${C62})
variable C26all equal 0.5*(0+${C62})
variable C26all equal 0.5*(0+-7.2447296661976e-10)
variable C34all equal 0.5*(${C34}+${C43})
variable C34all equal 0.5*(0+${C43})
variable C34all equal 0.5*(0+-2.55541094429306e-09)
variable C35all equal 0.5*(${C35}+${C53})
variable C35all equal 0.5*(0+${C53})
variable C35all equal 0.5*(0+-6.58620876669751e-11)
variable C36all equal 0.5*(${C36}+${C63})
variable C36all equal 0.5*(0+${C63})
variable C36all equal 0.5*(0+1.98900541267622e-09)
variable C45all equal 0.5*(${C45}+${C54})
variable C45all equal 0.5*(-9.220555809141e-10+${C54})
variable C45all equal 0.5*(-9.220555809141e-10+3.22719453319935e-10)
variable C46all equal 0.5*(${C46}+${C64})
variable C46all equal 0.5*(-4.083389001191e-10+${C64})
variable C46all equal 0.5*(-4.083389001191e-10+1.12622503097365e-09)
variable C56all equal 0.5*(${C56}+${C65})
variable C56all equal 0.5*(-2.15365839256365e-09+${C65})
variable C56all equal 0.5*(-2.15365839256365e-09+-8.62780579283911e-10)

print "c11 = ${C11all} ${cunits}"
c11 = 76.6953588012256 GPa
print "c22 = ${C22all} ${cunits}"
c22 = 76.6953588012256 GPa
print "c33 = ${C33all} ${cunits}"
c33 = 76.6953587502939 GPa
print "c12 = ${C12all} ${cunits}"
c12 = 43.0991707500652 GPa
print "c13 = ${C13all} ${cunits}"
c13 = 43.0991707500652 GPa
print "c23 = ${C23all} ${cunits}"
c23 = 43.0991707500652 GPa
print "c44 = ${C44all} ${cunits}"
c44 = 38.8891531368818 GPa
print "c55 = ${C55all} ${cunits}"
c55 = 38.889153137277 GPa
print "c66 = ${C66all} ${cunits}"
c66 = 38.8891531347018 GPa
print "c14 = ${C14all} ${cunits}"
c14 = 1.44893453926697e-10 GPa
print "c15 = ${C15all} ${cunits}"
c15 = -4.41270273258563e-10 GPa
print "c16 = ${C16all} ${cunits}"
c16 = -5.59819262257925e-10 GPa
print "c24 = ${C24all} ${cunits}"
c24 = -2.96374692017915e-10 GPa
print "c25 = ${C25all} ${cunits}"
c25 = 9.84623338523335e-10 GPa
print "c26 = ${C26all} ${cunits}"
c26 = -3.6223648330988e-10 GPa
print "c34 = ${C34all} ${cunits}"
c34 = -1.27770547214653e-09 GPa
print "c35 = ${C35all} ${cunits}"
c35 = -3.29310438334876e-11 GPa
print "c36 = ${C36all} ${cunits}"
c36 = 9.9450270633811e-10 GPa
print "c45 = ${C45all} ${cunits}"
c45 = -2.99668063797082e-10 GPa
print "c46 = ${C46all} ${cunits}"
c46 = 3.58943065427275e-10 GPa
print "c56 = ${C56all} ${cunits}"
c56 = -1.50821948592378e-09 GPa
print "lammps_sim_done"
lammps_sim_done
Total wall time: 0:00:00
