# ['Mg', 'O']

214 atoms
2 atom types

    0.0000    12.2076 xlo xhi
    0.0000    12.2076 ylo yhi
    0.0000    12.2076 zlo zhi

    0.0000     0.0000     0.0000 xy xz yz

Atoms

1 1     1.0000     2.0346     2.0346     0.0000
2 1     1.0000     2.0346     0.0000     2.0346
3 1     1.0000     0.0000     0.0000     0.0000
4 1     1.0000     0.0000     2.0346     2.0346
5 1     1.0000     2.0346     2.0346     4.0692
6 1     1.0000     2.0346     0.0000     6.1038
7 1     1.0000     0.0000     0.0000     4.0692
8 1     1.0000     0.0000     2.0346     6.1038
9 1     1.0000     2.0346     2.0346     8.1384
10 1     1.0000     2.0346     0.0000    10.1730
11 1     1.0000     0.0000     0.0000     8.1384
12 1     1.0000     0.0000     2.0346    10.1730
13 1     1.0000     2.0346     6.1038     0.0000
14 1     1.0000     2.0346     4.0692     2.0346
15 1     1.0000     0.0000     4.0692     0.0000
16 1     1.0000     0.0000     6.1038     2.0346
17 1     1.0000     2.0346     6.1038     4.0692
18 1     1.0000     2.0346     4.0692     6.1038
19 1     1.0000     0.0000     4.0692     4.0692
20 1     1.0000     0.0000     6.1038     6.1038
21 1     1.0000     2.0346     6.1038     8.1384
22 1     1.0000     2.0346     4.0692    10.1730
23 1     1.0000     0.0000     4.0692     8.1384
24 1     1.0000     0.0000     6.1038    10.1730
25 1     1.0000     2.0346    10.1730     0.0000
26 1     1.0000     2.0346     8.1384     2.0346
27 1     1.0000     0.0000     8.1384     0.0000
28 1     1.0000     0.0000    10.1730     2.0346
29 1     1.0000     2.0346    10.1730     4.0692
30 1     1.0000     2.0346     8.1384     6.1038
31 1     1.0000     0.0000     8.1384     4.0692
32 1     1.0000     0.0000    10.1730     6.1038
33 1     1.0000     2.0346    10.1730     8.1384
34 1     1.0000     2.0346     8.1384    10.1730
35 1     1.0000     0.0000     8.1384     8.1384
36 1     1.0000     0.0000    10.1730    10.1730
37 1     1.0000     6.1038     2.0346     0.0000
38 1     1.0000     6.1038     0.0000     2.0346
39 1     1.0000     4.0692     0.0000     0.0000
40 1     1.0000     4.0692     2.0346     2.0346
41 1     1.0000     6.1038     2.0346     4.0692
42 1     1.0000     6.1038     0.0000     6.1038
43 1     1.0000     4.0692     0.0000     4.0692
44 1     1.0000     4.0692     2.0346     6.1038
45 1     1.0000     6.1038     2.0346     8.1384
46 1     1.0000     6.1038     0.0000    10.1730
47 1     1.0000     4.0692     0.0000     8.1384
48 1     1.0000     4.0692     2.0346    10.1730
49 1     1.0000     6.1038     6.1038     0.0000
50 1     1.0000     6.1038     4.0692     2.0346
51 1     1.0000     4.0692     4.0692     0.0000
52 1     1.0000     4.0692     6.1038     2.0346
53 1     1.0000     6.1038     6.1038     4.0692
54 1     1.0000     6.1038     4.0692     6.1038
55 1     1.0000     4.0692     6.1038     6.1038
56 1     1.0000     6.1038     6.1038     8.1384
57 1     1.0000     6.1038     4.0692    10.1730
58 1     1.0000     4.0692     4.0692     8.1384
59 1     1.0000     4.0692     6.1038    10.1730
60 1     1.0000     6.1038    10.1730     0.0000
61 1     1.0000     6.1038     8.1384     2.0346
62 1     1.0000     4.0692     8.1384     0.0000
63 1     1.0000     4.0692    10.1730     2.0346
64 1     1.0000     6.1038    10.1730     4.0692
65 1     1.0000     6.1038     8.1384     6.1038
66 1     1.0000     4.0692     8.1384     4.0692
67 1     1.0000     4.0692    10.1730     6.1038
68 1     1.0000     6.1038    10.1730     8.1384
69 1     1.0000     6.1038     8.1384    10.1730
70 1     1.0000     4.0692     8.1384     8.1384
71 1     1.0000     4.0692    10.1730    10.1730
72 1     1.0000    10.1730     2.0346     0.0000
73 1     1.0000    10.1730     0.0000     2.0346
74 1     1.0000     8.1384     0.0000     0.0000
75 1     1.0000     8.1384     2.0346     2.0346
76 1     1.0000    10.1730     2.0346     4.0692
77 1     1.0000    10.1730     0.0000     6.1038
78 1     1.0000     8.1384     0.0000     4.0692
79 1     1.0000     8.1384     2.0346     6.1038
80 1     1.0000    10.1730     2.0346     8.1384
81 1     1.0000    10.1730     0.0000    10.1730
82 1     1.0000     8.1384     0.0000     8.1384
83 1     1.0000     8.1384     2.0346    10.1730
84 1     1.0000    10.1730     6.1038     0.0000
85 1     1.0000    10.1730     4.0692     2.0346
86 1     1.0000     8.1384     4.0692     0.0000
87 1     1.0000     8.1384     6.1038     2.0346
88 1     1.0000    10.1730     6.1038     4.0692
89 1     1.0000    10.1730     4.0692     6.1038
90 1     1.0000     8.1384     4.0692     4.0692
91 1     1.0000     8.1384     6.1038     6.1038
92 1     1.0000    10.1730     6.1038     8.1384
93 1     1.0000    10.1730     4.0692    10.1730
94 1     1.0000     8.1384     4.0692     8.1384
95 1     1.0000     8.1384     6.1038    10.1730
96 1     1.0000    10.1730    10.1730     0.0000
97 1     1.0000    10.1730     8.1384     2.0346
98 1     1.0000     8.1384     8.1384     0.0000
99 1     1.0000     8.1384    10.1730     2.0346
100 1     1.0000    10.1730    10.1730     4.0692
101 1     1.0000    10.1730     8.1384     6.1038
102 1     1.0000     8.1384     8.1384     4.0692
103 1     1.0000     8.1384    10.1730     6.1038
104 1     1.0000    10.1730    10.1730     8.1384
105 1     1.0000    10.1730     8.1384    10.1730
106 1     1.0000     8.1384     8.1384     8.1384
107 1     1.0000     8.1384    10.1730    10.1730
108 2     1.0000     0.0000     2.0346     0.0000
109 2     1.0000     2.0346     0.0000     0.0000
110 2     1.0000     2.0346     2.0346     2.0346
111 2     1.0000     0.0000     0.0000     2.0346
112 2     1.0000     0.0000     2.0346     4.0692
113 2     1.0000     2.0346     0.0000     4.0692
114 2     1.0000     2.0346     2.0346     6.1038
115 2     1.0000     0.0000     0.0000     6.1038
116 2     1.0000     0.0000     2.0346     8.1384
117 2     1.0000     2.0346     0.0000     8.1384
118 2     1.0000     2.0346     2.0346    10.1730
119 2     1.0000     0.0000     0.0000    10.1730
120 2     1.0000     0.0000     6.1038     0.0000
121 2     1.0000     2.0346     4.0692     0.0000
122 2     1.0000     2.0346     6.1038     2.0346
123 2     1.0000     0.0000     4.0692     2.0346
124 2     1.0000     0.0000     6.1038     4.0692
125 2     1.0000     2.0346     4.0692     4.0692
126 2     1.0000     2.0346     6.1038     6.1038
127 2     1.0000     0.0000     4.0692     6.1038
128 2     1.0000     0.0000     6.1038     8.1384
129 2     1.0000     2.0346     4.0692     8.1384
130 2     1.0000     2.0346     6.1038    10.1730
131 2     1.0000     0.0000     4.0692    10.1730
132 2     1.0000     0.0000    10.1730     0.0000
133 2     1.0000     2.0346     8.1384     0.0000
134 2     1.0000     2.0346    10.1730     2.0346
135 2     1.0000     0.0000     8.1384     2.0346
136 2     1.0000     0.0000    10.1730     4.0692
137 2     1.0000     2.0346     8.1384     4.0692
138 2     1.0000     2.0346    10.1730     6.1038
139 2     1.0000     0.0000     8.1384     6.1038
140 2     1.0000     0.0000    10.1730     8.1384
141 2     1.0000     2.0346     8.1384     8.1384
142 2     1.0000     2.0346    10.1730    10.1730
143 2     1.0000     0.0000     8.1384    10.1730
144 2     1.0000     4.0692     2.0346     0.0000
145 2     1.0000     6.1038     0.0000     0.0000
146 2     1.0000     6.1038     2.0346     2.0346
147 2     1.0000     4.0692     0.0000     2.0346
148 2     1.0000     4.0692     2.0346     4.0692
149 2     1.0000     6.1038     0.0000     4.0692
150 2     1.0000     6.1038     2.0346     6.1038
151 2     1.0000     4.0692     0.0000     6.1038
152 2     1.0000     4.0692     2.0346     8.1384
153 2     1.0000     6.1038     0.0000     8.1384
154 2     1.0000     6.1038     2.0346    10.1730
155 2     1.0000     4.0692     0.0000    10.1730
156 2     1.0000     4.0692     6.1038     0.0000
157 2     1.0000     6.1038     4.0692     0.0000
158 2     1.0000     6.1038     6.1038     2.0346
159 2     1.0000     4.0692     4.0692     2.0346
160 2     1.0000     4.0692     6.1038     4.0692
161 2     1.0000     6.1038     4.0692     4.0692
162 2     1.0000     6.1038     6.1038     6.1038
163 2     1.0000     4.0692     4.0692     6.1038
164 2     1.0000     4.0692     6.1038     8.1384
165 2     1.0000     6.1038     4.0692     8.1384
166 2     1.0000     6.1038     6.1038    10.1730
167 2     1.0000     4.0692     4.0692    10.1730
168 2     1.0000     4.0692    10.1730     0.0000
169 2     1.0000     6.1038     8.1384     0.0000
170 2     1.0000     6.1038    10.1730     2.0346
171 2     1.0000     4.0692     8.1384     2.0346
172 2     1.0000     4.0692    10.1730     4.0692
173 2     1.0000     6.1038     8.1384     4.0692
174 2     1.0000     6.1038    10.1730     6.1038
175 2     1.0000     4.0692     8.1384     6.1038
176 2     1.0000     4.0692    10.1730     8.1384
177 2     1.0000     6.1038     8.1384     8.1384
178 2     1.0000     6.1038    10.1730    10.1730
179 2     1.0000     4.0692     8.1384    10.1730
180 2     1.0000     8.1384     2.0346     0.0000
181 2     1.0000    10.1730     0.0000     0.0000
182 2     1.0000    10.1730     2.0346     2.0346
183 2     1.0000     8.1384     0.0000     2.0346
184 2     1.0000     8.1384     2.0346     4.0692
185 2     1.0000    10.1730     0.0000     4.0692
186 2     1.0000    10.1730     2.0346     6.1038
187 2     1.0000     8.1384     0.0000     6.1038
188 2     1.0000     8.1384     2.0346     8.1384
189 2     1.0000    10.1730     0.0000     8.1384
190 2     1.0000    10.1730     2.0346    10.1730
191 2     1.0000     8.1384     0.0000    10.1730
192 2     1.0000     8.1384     6.1038     0.0000
193 2     1.0000    10.1730     4.0692     0.0000
194 2     1.0000    10.1730     6.1038     2.0346
195 2     1.0000     8.1384     4.0692     2.0346
196 2     1.0000     8.1384     6.1038     4.0692
197 2     1.0000    10.1730     4.0692     4.0692
198 2     1.0000    10.1730     6.1038     6.1038
199 2     1.0000     8.1384     4.0692     6.1038
200 2     1.0000     8.1384     6.1038     8.1384
201 2     1.0000    10.1730     4.0692     8.1384
202 2     1.0000    10.1730     6.1038    10.1730
203 2     1.0000     8.1384     4.0692    10.1730
204 2     1.0000     8.1384    10.1730     0.0000
205 2     1.0000    10.1730     8.1384     0.0000
206 2     1.0000    10.1730    10.1730     2.0346
207 2     1.0000     8.1384     8.1384     2.0346
208 2     1.0000     8.1384    10.1730     4.0692
209 2     1.0000    10.1730     8.1384     4.0692
210 2     1.0000    10.1730    10.1730     6.1038
211 2     1.0000     8.1384     8.1384     6.1038
212 2     1.0000     8.1384    10.1730     8.1384
213 2     1.0000    10.1730     8.1384     8.1384
214 2     1.0000    10.1730    10.1730    10.1730
