LAMMPS (11 Aug 2017)
Reading data file ...
  triclinic box = (0 0 0) to (10.6831 10.6831 10.6831) with tilt (0 -0 -0)
  1 by 1 by 1 MPI processor grid
  reading atoms ...
  107 atoms
107 atoms in group Ni
Neighbor list info ...
  update every 1 steps, delay 0 steps, check yes
  max neighbors/atom: 2000, page size: 100000
  master list distance cutoff = 5.64464
  ghost atom cutoff = 5.64464
  binsize = 2.82232, bins = 4 4 4
  1 neighbor lists, perpetual/occasional/extra = 1 0 0
  (1) pair eam/alloy, perpetual
      attributes: half, newton on
      pair build: half/bin/newton/tri
      stencil: half/bin/3d/newton/tri
      bin: standard
Setting up cg style minimization ...
  Unit style    : metal
  Current step  : 0
Per MPI rank memory allocation (min/avg/max) = 4.229 | 4.229 | 4.229 Mbytes
Step PotEng Lx Ly Lz Xy Xz Yz Press Pxx Pyy Pzz Pxy Pxz Pyz c_eatoms 
       0   -380.23741      10.6831      10.6831      10.6831            0           -0           -0   -2340.1761   -2340.1761   -2340.1761   -2340.1761 9.6855804e-09 9.6895742e-09 9.6955557e-09   -380.23741 
       1   -380.26695      10.6831      10.6831      10.6831            0           -0           -0    -2966.932    -2966.932    -2966.932    -2966.932 -3.7352265e-06 -3.7352081e-06 -3.7352155e-06   -380.26695 
       2   -380.27406      10.6831      10.6831      10.6831            0           -0           -0   -3084.6198   -3084.6198   -3084.6198   -3084.6198 -3.2654471e-05 -3.2654479e-05 -3.2654485e-05   -380.27406 
       3   -380.27538      10.6831      10.6831      10.6831            0           -0           -0   -3175.2677   -3175.2677   -3175.2677   -3175.2677 -1.1936075e-05 -1.1936061e-05 -1.1936063e-05   -380.27538 
       4   -380.27552      10.6831      10.6831      10.6831            0           -0           -0   -3173.2546   -3173.2546   -3173.2546   -3173.2546 -1.8018599e-05 -1.801862e-05 -1.801861e-05   -380.27552 
       5   -380.27555      10.6831      10.6831      10.6831            0           -0           -0   -3169.9644   -3169.9644   -3169.9644   -3169.9644 -6.8082861e-06 -6.8082971e-06 -6.8082926e-06   -380.27555 
       6   -380.27555      10.6831      10.6831      10.6831            0           -0           -0   -3169.9713   -3169.9713   -3169.9713   -3169.9713 -5.3012117e-06 -5.3012184e-06 -5.301208e-06   -380.27555 
       7   -380.27555      10.6831      10.6831      10.6831            0           -0           -0   -3171.1758   -3171.1758   -3171.1758   -3171.1758 -3.4895306e-06 -3.4895433e-06 -3.4895328e-06   -380.27555 
       8   -380.27555      10.6831      10.6831      10.6831            0           -0           -0   -3171.4054   -3171.4054   -3171.4054   -3171.4054 -2.1438046e-06 -2.1438007e-06 -2.1438034e-06   -380.27555 
       9   -380.27555      10.6831      10.6831      10.6831            0           -0           -0   -3171.4176   -3171.4176   -3171.4176   -3171.4176 -9.3774674e-07 -9.377589e-07 -9.3773257e-07   -380.27555 
      10   -380.27555      10.6831      10.6831      10.6831            0           -0           -0   -3171.4114   -3171.4114   -3171.4114   -3171.4114 -8.1798338e-07 -8.1796542e-07 -8.179715e-07   -380.27555 
      11   -380.27555      10.6831      10.6831      10.6831            0           -0           -0   -3171.4261   -3171.4261   -3171.4261   -3171.4261 -3.789941e-07 -3.7897496e-07 -3.7899301e-07   -380.27555 
      12   -380.27555      10.6831      10.6831      10.6831            0           -0           -0   -3171.4284   -3171.4284   -3171.4284   -3171.4284 -3.564669e-07 -3.5648174e-07 -3.5648087e-07   -380.27555 
      13   -380.27555      10.6831      10.6831      10.6831            0           -0           -0   -3171.4291   -3171.4291   -3171.4291   -3171.4291 -2.5126394e-07 -2.5127318e-07 -2.5126687e-07   -380.27555 
      14   -380.27555      10.6831      10.6831      10.6831            0           -0           -0   -3171.4291   -3171.4291   -3171.4291   -3171.4291 -2.0037482e-07 -2.0037659e-07 -2.0038269e-07   -380.27555 
      15   -380.27555      10.6831      10.6831      10.6831            0           -0           -0   -3171.4291   -3171.4291   -3171.4291   -3171.4291 -1.4351779e-07 -1.4353646e-07 -1.4351476e-07   -380.27555 
      16   -380.27555      10.6831      10.6831      10.6831            0           -0           -0   -3171.4292   -3171.4292   -3171.4292   -3171.4292 -5.9682523e-08 -5.9674107e-08 -5.9685778e-08   -380.27555 
      17   -380.27555      10.6831      10.6831      10.6831            0           -0           -0   -3171.4292   -3171.4292   -3171.4292   -3171.4292 2.1512823e-08 2.1520729e-08 2.1539531e-08   -380.27555 
      18   -380.27555      10.6831      10.6831      10.6831            0           -0           -0   -3171.4291   -3171.4291   -3171.4291   -3171.4291 2.0093103e-08 2.0078185e-08 2.0078204e-08   -380.27555 
      19   -380.27555      10.6831      10.6831      10.6831            0           -0           -0   -3171.4291   -3171.4291   -3171.4291   -3171.4291 1.7701784e-08 1.7699194e-08 1.7686484e-08   -380.27555 
      20   -380.27555      10.6831      10.6831      10.6831            0           -0           -0   -3171.4291   -3171.4291   -3171.4291   -3171.4291 1.2867848e-08 1.2855374e-08 1.2857745e-08   -380.27555 
      21   -380.27555      10.6831      10.6831      10.6831            0           -0           -0   -3171.4291   -3171.4291   -3171.4291   -3171.4291 6.5163158e-09 6.5008969e-09 6.5060852e-09   -380.27555 
      22   -380.27555      10.6831      10.6831      10.6831            0           -0           -0   -3171.4291   -3171.4291   -3171.4291   -3171.4291 4.6365094e-09 4.6320414e-09 4.6495028e-09   -380.27555 
      23   -380.27555      10.6831      10.6831      10.6831            0           -0           -0   -3171.4291   -3171.4291   -3171.4291   -3171.4291 2.9440271e-09 2.9397324e-09 2.9503824e-09   -380.27555 
      24   -380.27555      10.6831      10.6831      10.6831            0           -0           -0   -3171.4291   -3171.4291   -3171.4291   -3171.4291 2.5348208e-09 2.5445773e-09 2.5529022e-09   -380.27555 
      25   -380.27555      10.6831      10.6831      10.6831            0           -0           -0   -3171.4291   -3171.4291   -3171.4291   -3171.4291 1.9782464e-09 1.9674687e-09 1.9841732e-09   -380.27555 
      26   -380.27555      10.6831      10.6831      10.6831            0           -0           -0   -3171.4291   -3171.4291   -3171.4291   -3171.4291 8.4253916e-10 8.3396806e-10 8.5536846e-10   -380.27555 
      27   -380.27555      10.6831      10.6831      10.6831            0           -0           -0   -3171.4291   -3171.4291   -3171.4291   -3171.4291 4.1909033e-10 4.163184e-10 4.0757406e-10   -380.27555 
      28   -380.27555      10.6831      10.6831      10.6831            0           -0           -0   -3171.4291   -3171.4291   -3171.4291   -3171.4291 1.863576e-10 2.0034491e-10 2.0930809e-10   -380.27555 
      29   -380.27555      10.6831      10.6831      10.6831            0           -0           -0   -3171.4291   -3171.4291   -3171.4291   -3171.4291 1.4140492e-10 1.292139e-10 1.3731997e-10   -380.27555 
      30   -380.27555      10.6831      10.6831      10.6831            0           -0           -0   -3171.4291   -3171.4291   -3171.4291   -3171.4291 8.8337042e-11 9.0206272e-11 7.7741703e-11   -380.27555 
      31   -380.27555      10.6831      10.6831      10.6831            0           -0           -0   -3171.4291   -3171.4291   -3171.4291   -3171.4291 6.7274019e-11 8.3814419e-11 7.700313e-11   -380.27555 
      32   -380.27555      10.6831      10.6831      10.6831            0           -0           -0   -3171.4291   -3171.4291   -3171.4291   -3171.4291 6.3663215e-11 7.170546e-11 6.8906175e-11   -380.27555 
      33   -380.27555      10.6831      10.6831      10.6831            0           -0           -0   -3171.4291   -3171.4291   -3171.4291   -3171.4291 3.4959147e-11 4.0776554e-11 4.8773208e-11   -380.27555 
      34   -380.27555      10.6831      10.6831      10.6831            0           -0           -0   -3171.4291   -3171.4291   -3171.4291   -3171.4291 2.8886432e-11 2.4400281e-11 4.7733734e-11   -380.27555 
      35   -380.27555      10.6831      10.6831      10.6831            0           -0           -0   -3171.4291   -3171.4291   -3171.4291   -3171.4291 2.3379044e-11 2.7327221e-11 4.3037865e-11   -380.27555 
      36   -380.27555      10.6831      10.6831      10.6831            0           -0           -0   -3171.4291   -3171.4291   -3171.4291   -3171.4291 1.1926595e-11 5.3797332e-12 6.9480622e-12   -380.27555 
      37   -380.27555      10.6831      10.6831      10.6831            0           -0           -0   -3171.4291   -3171.4291   -3171.4291   -3171.4291 8.4434456e-12 1.094183e-11 -3.4649129e-13   -380.27555 
      38   -380.27555      10.6831      10.6831      10.6831            0           -0           -0   -3171.4291   -3171.4291   -3171.4291   -3171.4291 1.1105958e-11 1.3139314e-11 8.5802185e-12   -380.27555 
Loop time of 0.0646071 on 1 procs for 38 steps with 107 atoms

27.5% CPU use with 1 MPI tasks x no OpenMP threads

Minimization stats:
  Stopping criterion = energy tolerance
  Energy initial, next-to-last, final = 
        -380.237414874     -380.275553459     -380.275553459
  Force two-norm initial, final = 0.569492 3.94609e-14
  Force max component initial, final = 0.109456 5.96745e-15
  Final line search alpha, max atom move = 1 5.96745e-15
  Iterations, force evaluations = 38 76

MPI task timing breakdown:
Section |  min time  |  avg time  |  max time  |%varavg| %total
---------------------------------------------------------------
Pair    | 0.016924   | 0.016924   | 0.016924   |   0.0 | 26.20
Neigh   | 0          | 0          | 0          |   0.0 |  0.00
Comm    | 0.00037646 | 0.00037646 | 0.00037646 |   0.0 |  0.58
Output  | 0.047002   | 0.047002   | 0.047002   |   0.0 | 72.75
Modify  | 0          | 0          | 0          |   0.0 |  0.00
Other   |            | 0.0003047  |            |       |  0.47

Nlocal:    107 ave 107 max 107 min
Histogram: 1 0 0 0 0 0 0 0 0 0
Nghost:    983 ave 983 max 983 min
Histogram: 1 0 0 0 0 0 0 0 0 0
Neighs:    4134 ave 4134 max 4134 min
Histogram: 1 0 0 0 0 0 0 0 0 0

Total # of neighbors = 4134
Ave neighs/atom = 38.6355
Neighbor list builds = 0
Dangerous builds = 0
pypospack:output_section:begin
tot_energy = -380.275553458997
num_atoms = 107
a11 = 10.6831
a22 = 10.6831
a33 = 10.6831
a12 = 0
a13 = -0
a23 = -0
tot_press = -3171.4291395482
pxx = -3171.42913954819
pyy = -3171.42913954822
pzz = -3171.42913954819
pxy = 1.11059576198737e-11
pxz = 1.3139314392642e-11
pyz = 8.58021848957399e-12
pypospack:output_section:done
pypospack:lammps_sim:done
Total wall time: 0:00:00
