    2    2    1    1
  0.9639684E+01  0.3009788E-09  0.3009788E-09  0.3009788E-09  0.5000000E-15
  1.000000000000000E-004
  CAR 
 automatically generated by pyflamestk   
      8     10     16
 
  0.1250000E+00  0.1250000E+00  0.1250000E+00  0.3125000E-01
    1      -13.598092   1.000000
    2        2.411068   1.000000
    3        3.256090   1.000000
    4        3.256090   1.000000
    5        8.698857   0.000000
    6       17.309224   0.000000
    7       19.318314   0.000000
    8       19.318317   0.000000
    9       23.529844   0.000000
   10       23.529845   0.000000
   11       24.863024   0.000000
   12       27.258436   0.000000
   13       28.680510   0.000000
   14       28.680511   0.000000
   15       38.893079   0.000000
   16       40.800396   0.000000
 
  0.3750000E+00  0.1250000E+00  0.1250000E+00  0.9375000E-01
    1      -12.949116   1.000000
    2        0.254427   1.000000
    3        2.402241   1.000000
    4        2.961929   1.000000
    5       11.117397   0.000000
    6       15.240211   0.000000
    7       18.617316   0.000000
    8       20.291104   0.000000
    9       22.114669   0.000000
   10       24.329948   0.000000
   11       26.408241   0.000000
   12       31.060013   0.000000
   13       32.314336   0.000000
   14       33.206874   0.000000
   15       35.573756   0.000000
   16       38.845667   0.000000
 
 -0.3750000E+00  0.1250000E+00  0.1250000E+00  0.9375000E-01
    1      -12.515593   1.000000
    2       -0.866952   1.000000
    3        2.253066   1.000000
    4        2.625110   1.000000
    5       11.723057   0.000000
    6       15.417222   0.000000
    7       17.910441   0.000000
    8       19.721433   0.000000
    9       23.698014   0.000000
   10       25.947529   0.000000
   11       26.024023   0.000000
   12       32.285039   0.000000
   13       32.870371   0.000000
   14       33.239082   0.000000
   15       35.793636   0.000000
   16       37.501924   0.000000
 
 -0.1250000E+00  0.1250000E+00  0.1250000E+00  0.9375000E-01
    1      -13.236571   1.000000
    2        1.135434   1.000000
    3        2.889027   1.000000
    4        2.892639   1.000000
    5       10.285813   0.000000
    6       15.496480   0.000000
    7       19.418350   0.000000
    8       19.905778   0.000000
    9       21.070392   0.000000
   10       24.910941   0.000000
   11       26.869514   0.000000
   12       29.950980   0.000000
   13       30.258573   0.000000
   14       30.981927   0.000000
   15       37.177397   0.000000
   16       38.949806   0.000000
 
  0.3750000E+00  0.3750000E+00  0.1250000E+00  0.9375000E-01
    1      -12.714614   1.000000
    2        0.071487   1.000000
    3        2.203313   1.000000
    4        2.434110   1.000000
    5       12.213685   0.000000
    6       13.907545   0.000000
    7       17.160508   0.000000
    8       20.780159   0.000000
    9       21.235763   0.000000
   10       27.083398   0.000000
   11       30.145589   0.000000
   12       30.398677   0.000000
   13       32.328196   0.000000
   14       34.818557   0.000000
   15       36.464978   0.000000
   16       37.868523   0.000000
 
 -0.3750000E+00  0.3750000E+00  0.1250000E+00  0.1875000E+00
    1      -12.305405   1.000000
    2       -0.042155   1.000000
    3        0.951568   1.000000
    4        2.025636   1.000000
    5       13.757947   0.000000
    6       14.766393   0.000000
    7       15.561129   0.000000
    8       19.546415   0.000000
    9       22.991164   0.000000
   10       26.444499   0.000000
   11       29.974017   0.000000
   12       31.398955   0.000000
   13       32.668104   0.000000
   14       36.333270   0.000000
   15       38.880759   0.000000
   16       41.085656   0.000000
 
 -0.1250000E+00  0.3750000E+00  0.1250000E+00  0.1875000E+00
    1      -12.560241   1.000000
    2       -0.246861   1.000000
    3        1.689638   1.000000
    4        2.524170   1.000000
    5       12.582956   0.000000
    6       14.789002   0.000000
    7       16.931685   0.000000
    8       20.117556   0.000000
    9       22.696444   0.000000
   10       25.354942   0.000000
   11       28.862981   0.000000
   12       31.629856   0.000000
   13       32.232754   0.000000
   14       34.881392   0.000000
   15       35.523858   0.000000
   16       41.006275   0.000000
 
 -0.3750000E+00 -0.3750000E+00  0.1250000E+00  0.9375000E-01
    1      -12.341222   1.000000
    2       -0.404446   1.000000
    3        1.687774   1.000000
    4        2.141210   1.000000
    5       12.853271   0.000000
    6       13.485719   0.000000
    7       16.007811   0.000000
    8       21.472822   0.000000
    9       21.485235   0.000000
   10       28.913533   0.000000
   11       29.390981   0.000000
   12       31.963454   0.000000
   13       32.660128   0.000000
   14       37.793251   0.000000
   15       38.168974   0.000000
   16       41.096646   0.000000
 
  0.3750000E+00  0.3750000E+00  0.3750000E+00  0.3125000E-01
    1      -12.750918   1.000000
    2       -0.600185   1.000000
    3        2.819077   1.000000
    4        2.819077   1.000000
    5       10.929139   0.000000
    6       15.430757   0.000000
    7       19.524626   0.000000
    8       19.524628   0.000000
    9       24.070204   0.000000
   10       24.442004   0.000000
   11       24.442007   0.000000
   12       31.898482   0.000000
   13       33.210254   0.000000
   14       33.210257   0.000000
   15       36.839092   0.000000
   16       36.839096   0.000000
 
 -0.3750000E+00  0.3750000E+00  0.3750000E+00  0.9375000E-01
    1      -12.388638   1.000000
    2       -0.283549   1.000000
    3        1.057062   1.000000
    4        2.494044   1.000000
    5       13.073203   0.000000
    6       15.231159   0.000000
    7       16.121603   0.000000
    8       20.426780   0.000000
    9       22.510249   0.000000
   10       25.549324   0.000000
   11       29.075263   0.000000
   12       31.613379   0.000000
   13       32.036166   0.000000
   14       35.363759   0.000000
   15       37.237495   0.000000
   16       40.110123   0.000000
