# ['Ni']

107 atoms
1 atom types

    0.0000    10.5139 xlo xhi
    0.0000    10.5139 ylo yhi
    0.0000    10.5139 zlo zhi

    0.0000    -0.0000    -0.0000 xy xz yz

Atoms

1 1     1.7523     1.7523     0.0000
2 1     1.7523     0.0000     1.7523
3 1     0.0000     1.7523     1.7523
4 1     0.0000     0.0000     3.5046
5 1     1.7523     1.7523     3.5046
6 1     1.7523     0.0000     5.2569
7 1     0.0000     1.7523     5.2569
8 1     0.0000     0.0000     7.0093
9 1     1.7523     1.7523     7.0093
10 1     1.7523     0.0000     8.7616
11 1     0.0000     1.7523     8.7616
12 1     0.0000     3.5046     0.0000
13 1     1.7523     5.2569     0.0000
14 1     1.7523     3.5046     1.7523
15 1     0.0000     5.2569     1.7523
16 1     0.0000     3.5046     3.5046
17 1     1.7523     5.2569     3.5046
18 1     1.7523     3.5046     5.2569
19 1     0.0000     5.2569     5.2569
20 1     0.0000     3.5046     7.0093
21 1     1.7523     5.2569     7.0093
22 1     1.7523     3.5046     8.7616
23 1     0.0000     5.2569     8.7616
24 1     0.0000     7.0093     0.0000
25 1     1.7523     8.7616     0.0000
26 1     1.7523     7.0093     1.7523
27 1     0.0000     8.7616     1.7523
28 1     0.0000     7.0093     3.5046
29 1     1.7523     8.7616     3.5046
30 1     1.7523     7.0093     5.2569
31 1     0.0000     8.7616     5.2569
32 1     0.0000     7.0093     7.0093
33 1     1.7523     8.7616     7.0093
34 1     1.7523     7.0093     8.7616
35 1     0.0000     8.7616     8.7616
36 1     3.5046     0.0000     0.0000
37 1     5.2569     1.7523     0.0000
38 1     5.2569     0.0000     1.7523
39 1     3.5046     1.7523     1.7523
40 1     3.5046     0.0000     3.5046
41 1     5.2569     1.7523     3.5046
42 1     5.2569     0.0000     5.2569
43 1     3.5046     1.7523     5.2569
44 1     3.5046     0.0000     7.0093
45 1     5.2569     1.7523     7.0093
46 1     5.2569     0.0000     8.7616
47 1     3.5046     1.7523     8.7616
48 1     3.5046     3.5046     0.0000
49 1     5.2569     5.2569     0.0000
50 1     5.2569     3.5046     1.7523
51 1     3.5046     5.2569     1.7523
52 1     3.5046     3.5046     3.5046
53 1     5.2569     5.2569     3.5046
54 1     5.2569     3.5046     5.2569
55 1     3.5046     5.2569     5.2569
56 1     3.5046     3.5046     7.0093
57 1     5.2569     5.2569     7.0093
58 1     5.2569     3.5046     8.7616
59 1     3.5046     5.2569     8.7616
60 1     3.5046     7.0093     0.0000
61 1     5.2569     8.7616     0.0000
62 1     5.2569     7.0093     1.7523
63 1     3.5046     8.7616     1.7523
64 1     3.5046     7.0093     3.5046
65 1     5.2569     8.7616     3.5046
66 1     5.2569     7.0093     5.2569
67 1     3.5046     8.7616     5.2569
68 1     3.5046     7.0093     7.0093
69 1     5.2569     8.7616     7.0093
70 1     5.2569     7.0093     8.7616
71 1     3.5046     8.7616     8.7616
72 1     7.0093     0.0000     0.0000
73 1     8.7616     1.7523     0.0000
74 1     8.7616     0.0000     1.7523
75 1     7.0093     1.7523     1.7523
76 1     7.0093     0.0000     3.5046
77 1     8.7616     1.7523     3.5046
78 1     8.7616     0.0000     5.2569
79 1     7.0093     1.7523     5.2569
80 1     7.0093     0.0000     7.0093
81 1     8.7616     1.7523     7.0093
82 1     8.7616     0.0000     8.7616
83 1     7.0093     1.7523     8.7616
84 1     7.0093     3.5046     0.0000
85 1     8.7616     5.2569     0.0000
86 1     8.7616     3.5046     1.7523
87 1     7.0093     5.2569     1.7523
88 1     7.0093     3.5046     3.5046
89 1     8.7616     5.2569     3.5046
90 1     8.7616     3.5046     5.2569
91 1     7.0093     5.2569     5.2569
92 1     7.0093     3.5046     7.0093
93 1     8.7616     5.2569     7.0093
94 1     8.7616     3.5046     8.7616
95 1     7.0093     5.2569     8.7616
96 1     7.0093     7.0093     0.0000
97 1     8.7616     8.7616     0.0000
98 1     8.7616     7.0093     1.7523
99 1     7.0093     8.7616     1.7523
100 1     7.0093     7.0093     3.5046
101 1     8.7616     8.7616     3.5046
102 1     8.7616     7.0093     5.2569
103 1     7.0093     8.7616     5.2569
104 1     7.0093     7.0093     7.0093
105 1     8.7616     8.7616     7.0093
106 1     8.7616     7.0093     8.7616
107 1     7.0093     8.7616     8.7616
