automatically generated by pyflamestk   
           1
     3.492102    0.000000    0.000000
     0.000000    3.492102    0.000000
     0.000000    0.000000    3.492102
   Ni
   4
Direct configuration=     1
   0.00000000  0.00000000  0.00000000
   0.00000000  0.50000000  0.50000000
   0.50000000  0.00000000  0.50000000
   0.50000000  0.50000000  0.00000000
