   4   4   0   0
  0.1064635E+02  0.3492102E-09  0.3492102E-09  0.3492102E-09  0.5000000E-15
  1.000000000000000E-004
  CAR 
 automatically generated by pyflamestk   
     33.67470725     -0.87893073  301      9.53324719      1.00000000
     -0.879  0.0000E+00  0.0000E+00  0.0000E+00  0.0000E+00
     -0.764  0.0000E+00  0.0000E+00  0.0000E+00  0.0000E+00
     -0.649  0.0000E+00  0.0000E+00  0.0000E+00  0.0000E+00
     -0.533 -0.4833E-29 -0.4815E-29 -0.5567E-30 -0.5546E-30
     -0.418 -0.4434E-25 -0.4418E-25 -0.5107E-26 -0.5090E-26
     -0.303 -0.2083E-21 -0.2077E-21 -0.2400E-22 -0.2393E-22
     -0.188 -0.5010E-18 -0.4995E-18 -0.5773E-19 -0.5756E-19
     -0.073 -0.6157E-15 -0.6140E-15 -0.7097E-16 -0.7078E-16
      0.042 -0.3729E-12 -0.3720E-12 -0.4302E-13 -0.4292E-13
      0.158 -0.1179E-09 -0.1177E-09 -0.1363E-10 -0.1360E-10
      0.273 -0.1884E-07 -0.1880E-07 -0.2183E-08 -0.2179E-08
      0.388 -0.1507E-05 -0.1505E-05 -0.1758E-06 -0.1755E-06
      0.503 -0.5947E-04 -0.5939E-04 -0.7025E-05 -0.7016E-05
      0.618 -0.1123E-02 -0.1121E-02 -0.1363E-03 -0.1362E-03
      0.734 -0.9379E-02 -0.9373E-02 -0.1217E-02 -0.1216E-02
      0.849 -0.2534E-01 -0.2534E-01 -0.4135E-02 -0.4134E-02
      0.964  0.5077E-01  0.5070E-01  0.1713E-02  0.1705E-02
      1.079  0.3397E+00  0.3396E+00  0.4084E-01  0.4082E-01
      1.194  0.5006E+00  0.5006E+00  0.9850E-01  0.9848E-01
      1.309  0.2496E+00  0.2498E+00  0.1273E+00  0.1272E+00
      1.425  0.9589E-02  0.9635E-02  0.1284E+00  0.1284E+00
      1.540 -0.2280E-01 -0.2281E-01  0.1257E+00  0.1257E+00
      1.655 -0.5764E-02 -0.5769E-02  0.1251E+00  0.1251E+00
      1.770 -0.5456E-03 -0.5462E-03  0.1250E+00  0.1250E+00
      1.885 -0.2572E-04 -0.2575E-04  0.1250E+00  0.1250E+00
      2.001 -0.9780E-04 -0.9767E-04  0.1250E+00  0.1250E+00
      2.116 -0.2104E-02 -0.2102E-02  0.1247E+00  0.1247E+00
      2.231 -0.2056E-01 -0.2055E-01  0.1224E+00  0.1224E+00
      2.346 -0.7226E-01 -0.7224E-01  0.1141E+00  0.1141E+00
      2.461  0.6427E-01  0.6411E-01  0.1215E+00  0.1214E+00
      2.576  0.8411E+00  0.8407E+00  0.2183E+00  0.2183E+00
      2.692  0.1515E+01  0.1515E+01  0.3928E+00  0.3927E+00
      2.807  0.9285E+00  0.9289E+00  0.4997E+00  0.4997E+00
      2.922  0.1040E+00  0.1042E+00  0.5117E+00  0.5117E+00
      3.037 -0.7483E-01 -0.7484E-01  0.5031E+00  0.5031E+00
      3.152 -0.2405E-01 -0.2407E-01  0.5003E+00  0.5003E+00
      3.268 -0.2743E-02 -0.2745E-02  0.5000E+00  0.5000E+00
      3.383 -0.2084E-02 -0.2083E-02  0.4998E+00  0.4998E+00
      3.498 -0.1954E-01 -0.1953E-01  0.4975E+00  0.4975E+00
      3.613 -0.7121E-01 -0.7120E-01  0.4893E+00  0.4893E+00
      3.728  0.5295E-01  0.5286E-01  0.4954E+00  0.4954E+00
      3.843  0.8133E+00  0.8131E+00  0.5891E+00  0.5891E+00
      3.959  0.1512E+01  0.1512E+01  0.7632E+00  0.7632E+00
      4.074  0.9528E+00  0.9530E+00  0.8730E+00  0.8730E+00
      4.189  0.1001E+00  0.1002E+00  0.8845E+00  0.8845E+00
      4.304 -0.9584E-01 -0.9582E-01  0.8735E+00  0.8735E+00
      4.419  0.9429E-01  0.9437E-01  0.8843E+00  0.8843E+00
      4.534  0.3850E+00  0.3850E+00  0.9287E+00  0.9287E+00
      4.650  0.6959E+00  0.6956E+00  0.1009E+01  0.1009E+01
      4.765  0.1304E+01  0.1303E+01  0.1159E+01  0.1159E+01
      4.880  0.1384E+01  0.1384E+01  0.1318E+01  0.1318E+01
      4.995  0.4260E+00  0.4263E+00  0.1367E+01  0.1367E+01
      5.110 -0.1470E-01 -0.1436E-01  0.1366E+01  0.1366E+01
      5.226  0.1171E+01  0.1172E+01  0.1501E+01  0.1501E+01
      5.341  0.2890E+01  0.2890E+01  0.1834E+01  0.1834E+01
      5.456  0.3512E+01  0.3512E+01  0.2238E+01  0.2238E+01
      5.571  0.3315E+01  0.3315E+01  0.2620E+01  0.2620E+01
      5.686  0.1818E+01  0.1818E+01  0.2829E+01  0.2829E+01
      5.801  0.7605E+00  0.7613E+00  0.2917E+01  0.2917E+01
      5.917  0.2868E+01  0.2869E+01  0.3247E+01  0.3247E+01
      6.032  0.5208E+01  0.5208E+01  0.3847E+01  0.3847E+01
      6.147  0.3819E+01  0.3819E+01  0.4287E+01  0.4287E+01
      6.262  0.2493E+01  0.2496E+01  0.4574E+01  0.4575E+01
      6.377  0.3926E+01  0.3928E+01  0.5026E+01  0.5027E+01
      6.493  0.3509E+01  0.3506E+01  0.5431E+01  0.5431E+01
      6.608  0.2351E+01  0.2349E+01  0.5701E+01  0.5701E+01
      6.723  0.3426E+01  0.3427E+01  0.6096E+01  0.6096E+01
      6.838  0.3521E+01  0.3522E+01  0.6501E+01  0.6502E+01
      6.953  0.2641E+01  0.2642E+01  0.6806E+01  0.6806E+01
      7.068  0.3242E+01  0.3242E+01  0.7179E+01  0.7179E+01
      7.184  0.4879E+01  0.4879E+01  0.7741E+01  0.7741E+01
      7.299  0.6716E+01  0.6717E+01  0.8514E+01  0.8515E+01
      7.414  0.6483E+01  0.6483E+01  0.9261E+01  0.9262E+01
      7.529  0.4030E+01  0.4027E+01  0.9725E+01  0.9726E+01
      7.644  0.3224E+01  0.3224E+01  0.1010E+02  0.1010E+02
      7.759  0.5495E+01  0.5497E+01  0.1073E+02  0.1073E+02
      7.875  0.7849E+01  0.7850E+01  0.1163E+02  0.1163E+02
      7.990  0.7190E+01  0.7189E+01  0.1246E+02  0.1246E+02
      8.105  0.3806E+01  0.3803E+01  0.1290E+02  0.1290E+02
      8.220  0.1977E+01  0.1975E+01  0.1313E+02  0.1313E+02
      8.335  0.3507E+01  0.3507E+01  0.1353E+02  0.1353E+02
      8.451  0.4230E+01  0.4230E+01  0.1402E+02  0.1402E+02
      8.566  0.4602E+01  0.4604E+01  0.1455E+02  0.1455E+02
      8.681  0.7285E+01  0.7285E+01  0.1539E+02  0.1539E+02
      8.796  0.7428E+01  0.7426E+01  0.1624E+02  0.1624E+02
      8.911  0.3574E+01  0.3572E+01  0.1666E+02  0.1666E+02
      9.026  0.1898E+01  0.1899E+01  0.1687E+02  0.1687E+02
      9.142  0.4484E+01  0.4488E+01  0.1739E+02  0.1739E+02
      9.257  0.6731E+01  0.6732E+01  0.1817E+02  0.1817E+02
      9.372  0.5862E+01  0.5862E+01  0.1884E+02  0.1884E+02
      9.487  0.6629E+01  0.6633E+01  0.1960E+02  0.1961E+02
      9.602  0.8720E+01  0.8720E+01  0.2061E+02  0.2061E+02
      9.718  0.5962E+01  0.5957E+01  0.2130E+02  0.2130E+02
      9.833  0.1274E+01  0.1270E+01  0.2144E+02  0.2144E+02
      9.948 -0.3518E+00 -0.3520E+00  0.2140E+02  0.2140E+02
     10.063 -0.1972E+00 -0.1969E+00  0.2138E+02  0.2138E+02
     10.178 -0.3131E-01 -0.3124E-01  0.2138E+02  0.2138E+02
     10.293 -0.2206E-02 -0.2199E-02  0.2138E+02  0.2138E+02
     10.409 -0.1094E-03 -0.1092E-03  0.2137E+02  0.2137E+02
     10.524 -0.1140E-02 -0.1141E-02  0.2137E+02  0.2137E+02
     10.639 -0.1787E-01 -0.1789E-01  0.2137E+02  0.2137E+02
     10.754 -0.1201E+00 -0.1202E+00  0.2136E+02  0.2136E+02
     10.869 -0.2054E+00 -0.2053E+00  0.2134E+02  0.2134E+02
     10.984  0.9093E+00  0.9104E+00  0.2144E+02  0.2144E+02
     11.100  0.3677E+01  0.3678E+01  0.2186E+02  0.2186E+02
     11.215  0.4239E+01  0.4238E+01  0.2235E+02  0.2235E+02
     11.330  0.1588E+01  0.1587E+01  0.2253E+02  0.2253E+02
     11.445 -0.9819E-01 -0.9844E-01  0.2252E+02  0.2252E+02
     11.560 -0.1677E+00 -0.1676E+00  0.2250E+02  0.2250E+02
     11.676 -0.3287E-01 -0.3284E-01  0.2250E+02  0.2250E+02
     11.791 -0.3398E-02 -0.3395E-02  0.2250E+02  0.2250E+02
     11.906 -0.1050E-01 -0.1050E-01  0.2250E+02  0.2250E+02
     12.021 -0.5471E-01 -0.5472E-01  0.2249E+02  0.2249E+02
     12.136 -0.3785E-01 -0.3784E-01  0.2249E+02  0.2249E+02
     12.251  0.5096E+00  0.5096E+00  0.2255E+02  0.2255E+02
     12.367  0.1404E+01  0.1404E+01  0.2271E+02  0.2271E+02
     12.482  0.1244E+01  0.1244E+01  0.2285E+02  0.2285E+02
     12.597  0.3172E+00  0.3172E+00  0.2289E+02  0.2289E+02
     12.712 -0.6768E-01 -0.6768E-01  0.2288E+02  0.2288E+02
     12.827 -0.4149E-01 -0.4148E-01  0.2288E+02  0.2288E+02
     12.943 -0.1178E-01 -0.1178E-01  0.2287E+02  0.2287E+02
     13.058 -0.3901E-01 -0.3902E-01  0.2287E+02  0.2287E+02
     13.173 -0.7073E-01 -0.7072E-01  0.2286E+02  0.2286E+02
     13.288  0.2839E+00  0.2841E+00  0.2289E+02  0.2289E+02
     13.403  0.1207E+01  0.1207E+01  0.2303E+02  0.2303E+02
     13.518  0.1428E+01  0.1428E+01  0.2320E+02  0.2320E+02
     13.634  0.5509E+00  0.5507E+00  0.2326E+02  0.2326E+02
     13.749 -0.2877E-01 -0.2881E-01  0.2326E+02  0.2326E+02
     13.864 -0.5737E-01 -0.5736E-01  0.2325E+02  0.2325E+02
     13.979 -0.1148E-01 -0.1147E-01  0.2325E+02  0.2325E+02
     14.094 -0.1902E-02 -0.1902E-02  0.2325E+02  0.2325E+02
     14.209 -0.1459E-01 -0.1459E-01  0.2325E+02  0.2325E+02
     14.325 -0.9026E-01 -0.9028E-01  0.2324E+02  0.2324E+02
     14.440 -0.1227E+00 -0.1227E+00  0.2322E+02  0.2322E+02
     14.555  0.7425E+00  0.7426E+00  0.2331E+02  0.2331E+02
     14.670  0.2596E+01  0.2596E+01  0.2361E+02  0.2361E+02
     14.785  0.2725E+01  0.2724E+01  0.2392E+02  0.2392E+02
     14.901  0.8966E+00  0.8965E+00  0.2403E+02  0.2403E+02
     15.016 -0.9914E-01 -0.9917E-01  0.2401E+02  0.2401E+02
     15.131 -0.1012E+00 -0.1012E+00  0.2400E+02  0.2400E+02
     15.246 -0.1790E-01 -0.1790E-01  0.2400E+02  0.2400E+02
     15.361 -0.1306E-02 -0.1305E-02  0.2400E+02  0.2400E+02
     15.476 -0.4464E-04 -0.4463E-04  0.2400E+02  0.2400E+02
     15.592 -0.7730E-05 -0.7740E-05  0.2400E+02  0.2400E+02
     15.707 -0.2549E-03 -0.2553E-03  0.2400E+02  0.2400E+02
     15.822 -0.4426E-02 -0.4430E-02  0.2400E+02  0.2400E+02
     15.937 -0.3350E-01 -0.3352E-01  0.2400E+02  0.2400E+02
     16.052 -0.7477E-01 -0.7476E-01  0.2399E+02  0.2399E+02
     16.168  0.2184E+00  0.2186E+00  0.2401E+02  0.2401E+02
     16.283  0.1122E+01  0.1123E+01  0.2414E+02  0.2414E+02
     16.398  0.1469E+01  0.1469E+01  0.2431E+02  0.2431E+02
     16.513  0.6312E+00  0.6308E+00  0.2438E+02  0.2438E+02
     16.628 -0.5994E-01 -0.6006E-01  0.2438E+02  0.2438E+02
     16.743 -0.1012E+00 -0.1011E+00  0.2436E+02  0.2436E+02
     16.859  0.4932E+00  0.4934E+00  0.2442E+02  0.2442E+02
     16.974  0.1401E+01  0.1402E+01  0.2458E+02  0.2458E+02
     17.089  0.1246E+01  0.1246E+01  0.2473E+02  0.2473E+02
     17.204  0.3192E+00  0.3191E+00  0.2476E+02  0.2476E+02
     17.319 -0.6756E-01 -0.6758E-01  0.2476E+02  0.2476E+02
     17.434 -0.4375E-01 -0.4374E-01  0.2475E+02  0.2475E+02
     17.550 -0.3451E-01 -0.3451E-01  0.2475E+02  0.2475E+02
     17.665 -0.1268E+00 -0.1268E+00  0.2473E+02  0.2473E+02
     17.780 -0.7004E-02 -0.7006E-02  0.2473E+02  0.2473E+02
     17.895  0.1296E+01  0.1296E+01  0.2488E+02  0.2488E+02
     18.010  0.2945E+01  0.2945E+01  0.2522E+02  0.2522E+02
     18.126  0.2232E+01  0.2232E+01  0.2548E+02  0.2548E+02
     18.241  0.4270E+00  0.4270E+00  0.2553E+02  0.2553E+02
     18.356 -0.1587E+00 -0.1587E+00  0.2551E+02  0.2551E+02
     18.471 -0.9156E-01 -0.9156E-01  0.2550E+02  0.2550E+02
     18.586  0.3541E-01  0.3544E-01  0.2550E+02  0.2550E+02
     18.701  0.3273E+00  0.3274E+00  0.2554E+02  0.2554E+02
     18.817  0.5028E+00  0.5028E+00  0.2560E+02  0.2560E+02
     18.932  0.2618E+00  0.2617E+00  0.2563E+02  0.2563E+02
     19.047  0.1402E-01  0.1400E-01  0.2563E+02  0.2563E+02
     19.162 -0.2367E-01 -0.2366E-01  0.2563E+02  0.2563E+02
     19.277 -0.1232E-01 -0.1232E-01  0.2562E+02  0.2562E+02
     19.393 -0.5359E-01 -0.5359E-01  0.2562E+02  0.2562E+02
     19.508 -0.1516E+00 -0.1516E+00  0.2560E+02  0.2560E+02
     19.623  0.2653E+00  0.2653E+00  0.2563E+02  0.2563E+02
     19.738  0.1968E+01  0.1968E+01  0.2586E+02  0.2586E+02
     19.853  0.3017E+01  0.3017E+01  0.2621E+02  0.2621E+02
     19.968  0.1569E+01  0.1569E+01  0.2639E+02  0.2639E+02
     20.084  0.8348E-01  0.8346E-01  0.2640E+02  0.2640E+02
     20.199 -0.1443E+00 -0.1443E+00  0.2638E+02  0.2638E+02
     20.314 -0.6993E-01 -0.6992E-01  0.2637E+02  0.2637E+02
     20.429 -0.7868E-01 -0.7868E-01  0.2636E+02  0.2636E+02
     20.544  0.2105E+00  0.2105E+00  0.2639E+02  0.2639E+02
     20.660  0.1111E+01  0.1111E+01  0.2651E+02  0.2651E+02
     20.775  0.1474E+01  0.1474E+01  0.2668E+02  0.2668E+02
     20.890  0.6531E+00  0.6532E+00  0.2676E+02  0.2676E+02
     21.005 -0.2081E-02 -0.2051E-02  0.2676E+02  0.2676E+02
     21.120 -0.6446E-01 -0.6446E-01  0.2675E+02  0.2675E+02
     21.235 -0.2891E-01 -0.2891E-01  0.2675E+02  0.2675E+02
     21.351 -0.9180E-01 -0.9179E-01  0.2674E+02  0.2674E+02
     21.466 -0.1237E+00 -0.1237E+00  0.2672E+02  0.2672E+02
     21.581  0.7311E+00  0.7309E+00  0.2681E+02  0.2681E+02
     21.696  0.2535E+01  0.2535E+01  0.2710E+02  0.2710E+02
     21.811  0.2724E+01  0.2724E+01  0.2741E+02  0.2741E+02
     21.926  0.1560E+01  0.1560E+01  0.2759E+02  0.2759E+02
     22.042  0.1379E+01  0.1379E+01  0.2775E+02  0.2775E+02
     22.157  0.9974E+00  0.9976E+00  0.2787E+02  0.2787E+02
     22.272  0.1816E+00  0.1818E+00  0.2789E+02  0.2789E+02
     22.387 -0.1015E+00 -0.1015E+00  0.2788E+02  0.2788E+02
     22.502 -0.1255E+00 -0.1255E+00  0.2786E+02  0.2786E+02
     22.618  0.1675E-01  0.1674E-01  0.2786E+02  0.2786E+02
     22.733  0.9499E+00  0.9498E+00  0.2797E+02  0.2797E+02
     22.848  0.2315E+01  0.2315E+01  0.2824E+02  0.2824E+02
     22.963  0.2378E+01  0.2378E+01  0.2851E+02  0.2851E+02
     23.078  0.1045E+01  0.1045E+01  0.2863E+02  0.2863E+02
     23.193  0.5148E-01  0.5155E-01  0.2864E+02  0.2864E+02
     23.309 -0.1017E+00 -0.1017E+00  0.2863E+02  0.2863E+02
     23.424 -0.6362E-01 -0.6362E-01  0.2862E+02  0.2862E+02
     23.539 -0.1009E+00 -0.1008E+00  0.2861E+02  0.2861E+02
     23.654  0.1051E+00  0.1051E+00  0.2862E+02  0.2862E+02
     23.769  0.1070E+01  0.1069E+01  0.2874E+02  0.2874E+02
     23.885  0.2579E+01  0.2578E+01  0.2904E+02  0.2904E+02
     24.000  0.3499E+01  0.3499E+01  0.2944E+02  0.2944E+02
     24.115  0.2399E+01  0.2400E+01  0.2972E+02  0.2972E+02
     24.230  0.4988E+00  0.4991E+00  0.2978E+02  0.2978E+02
     24.345 -0.1558E+00 -0.1558E+00  0.2976E+02  0.2976E+02
     24.460 -0.7793E-01 -0.7796E-01  0.2975E+02  0.2975E+02
     24.576 -0.1108E-01 -0.1109E-01  0.2975E+02  0.2975E+02
     24.691 -0.7105E-03 -0.7110E-03  0.2975E+02  0.2975E+02
     24.806 -0.9058E-03 -0.9053E-03  0.2975E+02  0.2975E+02
     24.921 -0.1343E-01 -0.1342E-01  0.2975E+02  0.2975E+02
     25.036 -0.8628E-01 -0.8626E-01  0.2974E+02  0.2974E+02
     25.151 -0.1316E+00 -0.1316E+00  0.2972E+02  0.2972E+02
     25.267  0.6699E+00  0.6696E+00  0.2980E+02  0.2980E+02
     25.382  0.2492E+01  0.2492E+01  0.3009E+02  0.3009E+02
     25.497  0.2849E+01  0.2849E+01  0.3042E+02  0.3042E+02
     25.612  0.1599E+01  0.1599E+01  0.3060E+02  0.3060E+02
     25.727  0.9198E+00  0.9199E+00  0.3071E+02  0.3071E+02
     25.843  0.4332E+00  0.4335E+00  0.3076E+02  0.3076E+02
     25.958  0.1454E-01  0.1465E-01  0.3076E+02  0.3076E+02
     26.073 -0.4878E-01 -0.4879E-01  0.3075E+02  0.3075E+02
     26.188 -0.1295E-01 -0.1296E-01  0.3075E+02  0.3075E+02
     26.303 -0.1539E-02 -0.1540E-02  0.3075E+02  0.3075E+02
     26.418 -0.4485E-02 -0.4483E-02  0.3075E+02  0.3075E+02
     26.534 -0.3351E-01 -0.3350E-01  0.3075E+02  0.3075E+02
     26.649 -0.7477E-01 -0.7477E-01  0.3074E+02  0.3074E+02
     26.764  0.2185E+00  0.2183E+00  0.3076E+02  0.3076E+02
     26.879  0.1122E+01  0.1122E+01  0.3089E+02  0.3089E+02
     26.994  0.1470E+01  0.1470E+01  0.3106E+02  0.3106E+02
     27.110  0.6414E+00  0.6416E+00  0.3113E+02  0.3113E+02
     27.225 -0.5417E-02 -0.5363E-02  0.3113E+02  0.3113E+02
     27.340 -0.6281E-01 -0.6282E-01  0.3113E+02  0.3113E+02
     27.455 -0.1394E-01 -0.1395E-01  0.3113E+02  0.3113E+02
     27.570 -0.1221E-02 -0.1221E-02  0.3113E+02  0.3113E+02
     27.685 -0.5436E-03 -0.5433E-03  0.3112E+02  0.3112E+02
     27.801 -0.7302E-02 -0.7298E-02  0.3112E+02  0.3112E+02
     27.916 -0.4522E-01 -0.4520E-01  0.3112E+02  0.3112E+02
     28.031 -0.6122E-01 -0.6124E-01  0.3111E+02  0.3111E+02
     28.146  0.3724E+00  0.3722E+00  0.3115E+02  0.3115E+02
     28.261  0.1299E+01  0.1299E+01  0.3130E+02  0.3130E+02
     28.376  0.1361E+01  0.1362E+01  0.3146E+02  0.3146E+02
     28.492  0.4471E+00  0.4473E+00  0.3151E+02  0.3151E+02
     28.607 -0.4980E-01 -0.4977E-01  0.3151E+02  0.3151E+02
     28.722 -0.5107E-01 -0.5108E-01  0.3150E+02  0.3150E+02
     28.837 -0.1696E-01 -0.1696E-01  0.3150E+02  0.3150E+02
     28.952 -0.4836E-01 -0.4835E-01  0.3149E+02  0.3149E+02
     29.068 -0.5631E-01 -0.5633E-01  0.3149E+02  0.3149E+02
     29.183  0.4071E+00  0.4070E+00  0.3153E+02  0.3153E+02
     29.298  0.1330E+01  0.1330E+01  0.3169E+02  0.3169E+02
     29.413  0.1333E+01  0.1333E+01  0.3184E+02  0.3184E+02
     29.528  0.4110E+00  0.4112E+00  0.3189E+02  0.3189E+02
     29.643 -0.5569E-01 -0.5566E-01  0.3188E+02  0.3188E+02
     29.759 -0.4799E-01 -0.4800E-01  0.3188E+02  0.3188E+02
     29.874 -0.8120E-02 -0.8124E-02  0.3188E+02  0.3188E+02
     29.989 -0.5721E-03 -0.5725E-03  0.3188E+02  0.3188E+02
     30.104 -0.1891E-04 -0.1892E-04  0.3188E+02  0.3188E+02
     30.219 -0.3055E-06 -0.3058E-06  0.3188E+02  0.3188E+02
     30.335 -0.2462E-08 -0.2464E-08  0.3188E+02  0.3188E+02
     30.450 -0.9992E-11 -0.1000E-10  0.3188E+02  0.3188E+02
     30.565 -0.8995E-13 -0.8980E-13  0.3187E+02  0.3187E+02
     30.680 -0.2650E-10 -0.2645E-10  0.3187E+02  0.3187E+02
     30.795 -0.5097E-08 -0.5088E-08  0.3187E+02  0.3187E+02
     30.910 -0.4923E-06 -0.4916E-06  0.3187E+02  0.3187E+02
     31.026 -0.2358E-04 -0.2355E-04  0.3187E+02  0.3187E+02
     31.141 -0.5461E-03 -0.5456E-03  0.3187E+02  0.3187E+02
     31.256 -0.5768E-02 -0.5764E-02  0.3187E+02  0.3187E+02
     31.371 -0.2281E-01 -0.2280E-01  0.3187E+02  0.3187E+02
     31.486  0.9628E-02  0.9589E-02  0.3187E+02  0.3187E+02
     31.601  0.2497E+00  0.2496E+00  0.3190E+02  0.3190E+02
     31.717  0.5006E+00  0.5006E+00  0.3196E+02  0.3196E+02
     31.832  0.3396E+00  0.3397E+00  0.3200E+02  0.3200E+02
     31.947  0.5071E-01  0.5077E-01  0.3200E+02  0.3200E+02
     32.062 -0.2534E-01 -0.2534E-01  0.3200E+02  0.3200E+02
     32.177 -0.9374E-02 -0.9379E-02  0.3200E+02  0.3200E+02
     32.293 -0.1122E-02 -0.1123E-02  0.3200E+02  0.3200E+02
     32.408 -0.5940E-04 -0.5947E-04  0.3200E+02  0.3200E+02
     32.523 -0.1505E-05 -0.1507E-05  0.3200E+02  0.3200E+02
     32.638 -0.1881E-07 -0.1884E-07  0.3200E+02  0.3200E+02
     32.753 -0.1177E-09 -0.1179E-09  0.3200E+02  0.3200E+02
     32.868 -0.3721E-12 -0.3728E-12  0.3200E+02  0.3200E+02
     32.984 -0.7229E-15 -0.7229E-15  0.3200E+02  0.3200E+02
     33.099  0.0000E+00  0.0000E+00  0.3200E+02  0.3200E+02
     33.214  0.0000E+00  0.0000E+00  0.3200E+02  0.3200E+02
     33.329  0.0000E+00  0.0000E+00  0.3200E+02  0.3200E+02
     33.444  0.0000E+00  0.0000E+00  0.3200E+02  0.3200E+02
     33.560  0.0000E+00  0.0000E+00  0.3200E+02  0.3200E+02
     33.675  0.0000E+00  0.0000E+00  0.3200E+02  0.3200E+02
