# ['Ni']

10 atoms
1 atom types

    0.0000     3.6217 xlo xhi
    0.0000     2.5926 ylo yhi
    0.0000    25.9255 zlo zhi

    0.0000     0.0000     0.0000 xy xz yz

Atoms

1 1     0.0000     0.0000     0.0000
2 1     1.8108     1.2963     1.2963
3 1     0.0000     0.0000     2.5926
4 1     1.8108     1.2963     3.8888
5 1     0.0000     0.0000     5.1851
6 1     1.8108     1.2963     6.4814
7 1     0.0000     0.0000     7.7777
8 1     1.8108     1.2963     9.0739
9 1     0.0000     0.0000    10.3702
10 1     1.8108     1.2963    11.6665
