   2   2   0   0
  0.1090254E+02  0.2793739E-09  0.2793739E-09  0.2793739E-09  0.5000000E-15
  1.000000000000000E-004
  CAR 
 automatically generated by pyflamestk   
     29.83258574     -0.72152462  301      9.25048773      1.00000000
     -0.722  0.0000E+00  0.0000E+00  0.0000E+00  0.0000E+00
     -0.620  0.0000E+00  0.0000E+00  0.0000E+00  0.0000E+00
     -0.518  0.0000E+00  0.0000E+00  0.0000E+00  0.0000E+00
     -0.416  0.0000E+00 -0.1967E-30  0.0000E+00 -0.2003E-31
     -0.314 -0.1681E-27 -0.7972E-27 -0.1712E-28 -0.8121E-28
     -0.212 -0.4466E-24 -0.1916E-23 -0.4551E-25 -0.1952E-24
     -0.110 -0.7033E-21 -0.2728E-20 -0.7168E-22 -0.2780E-21
     -0.009 -0.6558E-18 -0.2300E-17 -0.6686E-19 -0.2345E-18
      0.093 -0.3617E-15 -0.1146E-14 -0.3690E-16 -0.1170E-15
      0.195 -0.1140E-12 -0.3261E-12 -0.1165E-13 -0.3333E-13
      0.297 -0.2176E-10 -0.5619E-10 -0.2228E-11 -0.5756E-11
      0.399 -0.2436E-08 -0.5675E-08 -0.2503E-09 -0.5838E-09
      0.501 -0.1592E-06 -0.3342E-06 -0.1647E-07 -0.3462E-07
      0.602 -0.6027E-05 -0.1137E-04 -0.6303E-06 -0.1193E-05
      0.704 -0.1303E-03 -0.2202E-03 -0.1390E-04 -0.2362E-04
      0.806 -0.1564E-02 -0.2348E-02 -0.1732E-03 -0.2628E-03
      0.908 -0.9788E-02 -0.1277E-01 -0.1170E-02 -0.1563E-02
      1.010 -0.2556E-01 -0.2593E-01 -0.3773E-02 -0.4204E-02
      1.112  0.1679E-01  0.4350E-01 -0.2063E-02  0.2264E-03
      1.214  0.2356E+00  0.2932E+00  0.2193E-01  0.3009E-01
      1.315  0.4881E+00  0.5065E+00  0.7164E-01  0.8167E-01
      1.417  0.4235E+00  0.3735E+00  0.1148E+00  0.1197E+00
      1.519  0.1407E+00  0.9530E-01  0.1291E+00  0.1294E+00
      1.621 -0.1287E-01 -0.2132E-01  0.1278E+00  0.1273E+00
      1.723 -0.2104E-01 -0.1761E-01  0.1257E+00  0.1255E+00
      1.825 -0.5678E-02 -0.4020E-02  0.1251E+00  0.1250E+00
      1.926 -0.7182E-03 -0.4484E-03  0.1250E+00  0.1250E+00
      2.028 -0.4873E-04 -0.2717E-04  0.1250E+00  0.1250E+00
      2.130 -0.1859E-05 -0.9303E-06  0.1250E+00  0.1250E+00
      2.232 -0.4071E-07 -0.1834E-07  0.1250E+00  0.1250E+00
      2.334 -0.5181E-09 -0.2105E-09  0.1250E+00  0.1250E+00
      2.436 -0.1249E-10 -0.5225E-11  0.1250E+00  0.1250E+00
      2.538 -0.1196E-08 -0.5734E-09  0.1250E+00  0.1250E+00
      2.639 -0.9685E-07 -0.5052E-07  0.1250E+00  0.1250E+00
      2.741 -0.4560E-05 -0.2591E-05  0.1250E+00  0.1250E+00
      2.843 -0.1234E-03 -0.7653E-04  0.1250E+00  0.1250E+00
      2.945 -0.1881E-02 -0.1278E-02  0.1248E+00  0.1249E+00
      3.047 -0.1543E-01 -0.1161E-01  0.1232E+00  0.1237E+00
      3.149 -0.6017E-01 -0.5171E-01  0.1171E+00  0.1184E+00
      3.251 -0.4767E-01 -0.6580E-01  0.1122E+00  0.1117E+00
      3.352  0.3800E+00  0.2727E+00  0.1509E+00  0.1395E+00
      3.454  0.1229E+01  0.1104E+01  0.2761E+00  0.2519E+00
      3.556  0.1485E+01  0.1523E+01  0.4274E+00  0.4070E+00
      3.658  0.7571E+00  0.8981E+00  0.5045E+00  0.4984E+00
      3.760  0.7149E-01  0.1404E+00  0.5117E+00  0.5127E+00
      3.862 -0.7769E-01 -0.7747E-01  0.5038E+00  0.5048E+00
      3.963 -0.3205E-01 -0.3932E-01  0.5006E+00  0.5008E+00
      4.065 -0.8072E-02 -0.7354E-02  0.4997E+00  0.5001E+00
      4.167 -0.2086E-01 -0.9257E-03  0.4976E+00  0.5000E+00
      4.269 -0.6837E-01 -0.3111E-02  0.4907E+00  0.4997E+00
      4.371 -0.1737E-01 -0.2195E-01  0.4889E+00  0.4974E+00
      4.473  0.5064E+00 -0.7035E-01  0.5405E+00  0.4903E+00
      4.575  0.1343E+01 -0.6717E-02  0.6772E+00  0.4896E+00
      4.676  0.1412E+01  0.5434E+00  0.8210E+00  0.5449E+00
      4.778  0.5875E+00  0.1370E+01  0.8808E+00  0.6845E+00
      4.880 -0.5965E-01  0.1392E+01  0.8748E+00  0.8262E+00
      4.982 -0.6584E-01  0.5729E+00  0.8681E+00  0.8846E+00
      5.084  0.5477E+00 -0.1196E-01  0.9238E+00  0.8834E+00
      5.186  0.1336E+01 -0.1328E+00  0.1060E+01  0.8698E+00
      5.287  0.1506E+01 -0.9272E-01  0.1213E+01  0.8604E+00
      5.389  0.1514E+01  0.2785E+00  0.1368E+01  0.8887E+00
      5.491  0.2006E+01  0.1105E+01  0.1572E+01  0.1001E+01
      5.593  0.2127E+01  0.1902E+01  0.1788E+01  0.1195E+01
      5.695  0.1350E+01  0.2505E+01  0.1926E+01  0.1450E+01
      5.797  0.5065E+00  0.2563E+01  0.1977E+01  0.1711E+01
      5.899  0.6847E+00  0.1462E+01  0.2047E+01  0.1860E+01
      6.000  0.2220E+01  0.3091E+00  0.2273E+01  0.1891E+01
      6.102  0.3899E+01  0.2830E+00  0.2670E+01  0.1920E+01
      6.204  0.4235E+01  0.7831E+00  0.3102E+01  0.2000E+01
      6.306  0.3431E+01  0.1138E+01  0.3451E+01  0.2116E+01
      6.408  0.2091E+01  0.1784E+01  0.3664E+01  0.2298E+01
      6.510  0.1089E+01  0.2495E+01  0.3775E+01  0.2552E+01
      6.611  0.1820E+01  0.2819E+01  0.3960E+01  0.2839E+01
      6.713  0.3218E+01  0.3327E+01  0.4288E+01  0.3178E+01
      6.815  0.2905E+01  0.3295E+01  0.4584E+01  0.3513E+01
      6.917  0.1761E+01  0.1903E+01  0.4763E+01  0.3707E+01
      7.019  0.2371E+01  0.7711E+00  0.5005E+01  0.3786E+01
      7.121  0.3837E+01  0.1341E+01  0.5396E+01  0.3922E+01
      7.223  0.3380E+01  0.2791E+01  0.5740E+01  0.4206E+01
      7.324  0.1522E+01  0.3928E+01  0.5895E+01  0.4606E+01
      7.426  0.4516E+00  0.4304E+01  0.5941E+01  0.5045E+01
      7.528  0.2342E+00  0.3906E+01  0.5965E+01  0.5443E+01
      7.630  0.1155E+00  0.2864E+01  0.5977E+01  0.5734E+01
      7.732  0.6642E+00  0.1356E+01  0.6044E+01  0.5872E+01
      7.834  0.2219E+01  0.1933E+00  0.6270E+01  0.5892E+01
      7.935  0.3163E+01 -0.4308E-01  0.6592E+01  0.5888E+01
      8.037  0.2744E+01  0.2363E+00  0.6872E+01  0.5912E+01
      8.139  0.2933E+01  0.5075E+00  0.7171E+01  0.5964E+01
      8.241  0.4192E+01  0.9345E+00  0.7598E+01  0.6059E+01
      8.343  0.4646E+01  0.1689E+01  0.8071E+01  0.6231E+01
      8.445  0.4267E+01  0.2339E+01  0.8505E+01  0.6469E+01
      8.547  0.3996E+01  0.2722E+01  0.8912E+01  0.6746E+01
      8.648  0.3970E+01  0.3207E+01  0.9317E+01  0.7073E+01
      8.750  0.4455E+01  0.4228E+01  0.9770E+01  0.7503E+01
      8.852  0.4269E+01  0.5296E+01  0.1021E+02  0.8043E+01
      8.954  0.2524E+01  0.5351E+01  0.1046E+02  0.8588E+01
      9.056  0.6457E+00  0.4091E+01  0.1053E+02  0.9004E+01
      9.158 -0.1482E+00  0.2669E+01  0.1051E+02  0.9276E+01
      9.259 -0.2057E+00  0.2510E+01  0.1049E+02  0.9532E+01
      9.361  0.6345E-01  0.3219E+01  0.1050E+02  0.9860E+01
      9.463  0.8137E+00  0.3453E+01  0.1058E+02  0.1021E+02
      9.565  0.1505E+01  0.2357E+01  0.1073E+02  0.1045E+02
      9.667  0.1176E+01  0.7015E+00  0.1085E+02  0.1052E+02
      9.769  0.3312E+00 -0.1527E+00  0.1089E+02  0.1051E+02
      9.871 -0.5681E-01 -0.1378E+00  0.1088E+02  0.1049E+02
      9.972 -0.5649E-01  0.4816E+00  0.1088E+02  0.1054E+02
     10.074 -0.1365E-01  0.1346E+01  0.1088E+02  0.1068E+02
     10.176 -0.1591E-02  0.1409E+01  0.1088E+02  0.1082E+02
     10.278 -0.1003E-03  0.6025E+00  0.1088E+02  0.1088E+02
     10.380 -0.3565E-05  0.1205E-01  0.1088E+02  0.1089E+02
     10.482 -0.7296E-07 -0.7313E-01  0.1088E+02  0.1088E+02
     10.583 -0.5112E-08 -0.2453E-01  0.1087E+02  0.1088E+02
     10.685 -0.2962E-06 -0.3605E-02  0.1087E+02  0.1088E+02
     10.787 -0.1199E-04 -0.2793E-03  0.1087E+02  0.1088E+02
     10.889 -0.2776E-03 -0.1211E-04  0.1087E+02  0.1088E+02
     10.991 -0.3588E-02 -0.2240E-05  0.1087E+02  0.1087E+02
     11.093 -0.2444E-01 -0.5990E-04  0.1087E+02  0.1087E+02
     11.195 -0.7305E-01 -0.1047E-02  0.1086E+02  0.1087E+02
     11.296  0.1141E-01 -0.1000E-01  0.1087E+02  0.1087E+02
     11.398  0.6006E+00 -0.4746E-01  0.1093E+02  0.1087E+02
     11.500  0.1407E+01 -0.7154E-01  0.1107E+02  0.1086E+02
     11.602  0.1339E+01  0.2245E+00  0.1121E+02  0.1088E+02
     11.704  0.4617E+00  0.1036E+01  0.1125E+02  0.1099E+02
     11.806 -0.9272E-01  0.1524E+01  0.1124E+02  0.1115E+02
     11.908  0.1964E+00  0.9321E+00  0.1126E+02  0.1124E+02
     12.009  0.1214E+01  0.9190E-01  0.1139E+02  0.1125E+02
     12.111  0.1949E+01 -0.6429E-02  0.1159E+02  0.1125E+02
     12.213  0.1400E+01  0.7898E+00  0.1173E+02  0.1133E+02
     12.315  0.3651E+00  0.1748E+01  0.1177E+02  0.1151E+02
     12.417 -0.7422E-01  0.1680E+01  0.1176E+02  0.1168E+02
     12.519 -0.6667E-01  0.7470E+00  0.1175E+02  0.1175E+02
     12.620 -0.1598E-01  0.6953E-01  0.1175E+02  0.1176E+02
     12.722 -0.1873E-02 -0.7336E-01  0.1175E+02  0.1175E+02
     12.824 -0.1197E-03 -0.3387E-01  0.1175E+02  0.1175E+02
     12.926 -0.4331E-05 -0.6717E-02  0.1175E+02  0.1175E+02
     13.028 -0.9041E-07 -0.7200E-03  0.1175E+02  0.1175E+02
     13.130 -0.1100E-08 -0.4398E-04  0.1175E+02  0.1175E+02
     13.232 -0.7839E-11 -0.1558E-05  0.1175E+02  0.1175E+02
     13.333 -0.3270E-13 -0.3226E-07  0.1175E+02  0.1175E+02
     13.435  0.0000E+00 -0.3919E-09  0.1175E+02  0.1175E+02
     13.537  0.0000E+00 -0.2800E-11  0.1175E+02  0.1175E+02
     13.639  0.0000E+00 -0.1172E-13  0.1175E+02  0.1175E+02
     13.741  0.0000E+00  0.0000E+00  0.1175E+02  0.1175E+02
     13.843  0.0000E+00  0.0000E+00  0.1175E+02  0.1175E+02
     13.944  0.0000E+00  0.0000E+00  0.1175E+02  0.1175E+02
     14.046 -0.9335E-29  0.0000E+00  0.1175E+02  0.1175E+02
     14.148 -0.3112E-25  0.0000E+00  0.1175E+02  0.1175E+02
     14.250 -0.6150E-22 -0.1629E-28  0.1175E+02  0.1175E+02
     14.352 -0.7199E-19 -0.5244E-25  0.1175E+02  0.1175E+02
     14.454 -0.4987E-16 -0.1001E-21  0.1175E+02  0.1175E+02
     14.556 -0.1974E-13 -0.1131E-18  0.1175E+02  0.1175E+02
     14.657 -0.4759E-11 -0.7568E-16  0.1175E+02  0.1175E+02
     14.759 -0.6718E-09 -0.2897E-13  0.1175E+02  0.1175E+02
     14.861 -0.5550E-07 -0.6728E-11  0.1175E+02  0.1175E+02
     14.963 -0.2667E-05 -0.9166E-09  0.1175E+02  0.1175E+02
     15.065 -0.7369E-04 -0.7306E-07  0.1175E+02  0.1175E+02
     15.167 -0.1149E-02 -0.3384E-05  0.1175E+02  0.1175E+02
     15.268 -0.9702E-02 -0.9006E-04  0.1175E+02  0.1175E+02
     15.370 -0.3988E-01 -0.1348E-02  0.1174E+02  0.1175E+02
     15.472 -0.4535E-01 -0.1086E-01  0.1174E+02  0.1175E+02
     15.574  0.1878E+00 -0.4137E-01  0.1176E+02  0.1174E+02
     15.676  0.7295E+00 -0.3147E-01  0.1183E+02  0.1174E+02
     15.778  0.1227E+01  0.2477E+00  0.1196E+02  0.1177E+02
     15.880  0.1570E+01  0.7658E+00  0.1212E+02  0.1184E+02
     15.981  0.1587E+01  0.9659E+00  0.1228E+02  0.1194E+02
     16.083  0.9092E+00  0.9943E+00  0.1237E+02  0.1204E+02
     16.185  0.1542E+00  0.1384E+01  0.1239E+02  0.1219E+02
     16.287 -0.7942E-01  0.1364E+01  0.1238E+02  0.1232E+02
     16.389 -0.4328E-01  0.5916E+00  0.1238E+02  0.1238E+02
     16.491 -0.8479E-02  0.1191E-01  0.1238E+02  0.1239E+02
     16.592 -0.8402E-03 -0.7381E-01  0.1238E+02  0.1238E+02
     16.694 -0.4583E-04 -0.2496E-01  0.1238E+02  0.1238E+02
     16.796 -0.6192E-05 -0.3696E-02  0.1237E+02  0.1238E+02
     16.898 -0.1204E-03 -0.2950E-03  0.1237E+02  0.1238E+02
     17.000 -0.1700E-02 -0.1735E-03  0.1237E+02  0.1237E+02
     17.102 -0.1282E-01 -0.2142E-02  0.1237E+02  0.1237E+02
     17.204 -0.4445E-01 -0.1509E-01  0.1237E+02  0.1237E+02
     17.305 -0.1674E-01 -0.4743E-01  0.1237E+02  0.1237E+02
     17.407  0.3180E+00 -0.1238E-02  0.1240E+02  0.1237E+02
     17.509  0.8753E+00  0.3729E+00  0.1249E+02  0.1241E+02
     17.611  0.9367E+00  0.9200E+00  0.1258E+02  0.1250E+02
     17.713  0.4104E+00  0.9134E+00  0.1263E+02  0.1259E+02
     17.815  0.1285E+00  0.3490E+00  0.1264E+02  0.1263E+02
     17.916  0.3425E+00 -0.4383E-02  0.1267E+02  0.1263E+02
     18.018  0.4827E+00  0.1312E+00  0.1272E+02  0.1264E+02
     18.120  0.2613E+00  0.4387E+00  0.1275E+02  0.1269E+02
     18.222  0.8230E-02  0.4550E+00  0.1275E+02  0.1273E+02
     18.324 -0.2104E-01  0.1693E+00  0.1275E+02  0.1275E+02
     18.426  0.1922E+00  0.7519E-02  0.1277E+02  0.1275E+02
     18.528  0.4694E+00  0.1818E+00  0.1282E+02  0.1277E+02
     18.629  0.4457E+00  0.4650E+00  0.1286E+02  0.1282E+02
     18.731  0.1525E+00  0.4449E+00  0.1288E+02  0.1286E+02
     18.833 -0.6826E-01  0.1627E+00  0.1287E+02  0.1288E+02
     18.935 -0.6314E-01 -0.3488E-01  0.1286E+02  0.1287E+02
     19.037  0.4077E+00 -0.9900E-01  0.1290E+02  0.1286E+02
     19.139  0.1262E+01  0.3795E-01  0.1303E+02  0.1287E+02
     19.240  0.1468E+01  0.6915E+00  0.1318E+02  0.1294E+02
     19.342  0.7156E+00  0.1458E+01  0.1326E+02  0.1309E+02
     19.444  0.5398E-01  0.1282E+01  0.1326E+02  0.1322E+02
     19.546 -0.7689E-01  0.4345E+00  0.1325E+02  0.1326E+02
     19.648 -0.2980E-01 -0.3576E-01  0.1325E+02  0.1326E+02
     19.750 -0.4796E-02 -0.6395E-01  0.1325E+02  0.1325E+02
     19.852 -0.4026E-03 -0.1751E-01  0.1325E+02  0.1325E+02
     19.953 -0.4317E-04 -0.2239E-02  0.1325E+02  0.1325E+02
     20.055 -0.5113E-03 -0.1645E-03  0.1325E+02  0.1325E+02
     20.157 -0.5975E-02 -0.2715E-03  0.1325E+02  0.1325E+02
     20.259 -0.3703E-01 -0.3573E-02  0.1325E+02  0.1325E+02
     20.361 -0.1006E+00 -0.2594E-01  0.1324E+02  0.1325E+02
     20.463  0.3076E-01 -0.8889E-01  0.1324E+02  0.1324E+02
     20.565  0.8419E+00 -0.4533E-01  0.1332E+02  0.1323E+02
     20.666  0.2019E+01  0.5892E+00  0.1353E+02  0.1329E+02
     20.768  0.2171E+01  0.1802E+01  0.1375E+02  0.1348E+02
     20.870  0.1078E+01  0.2286E+01  0.1386E+02  0.1371E+02
     20.972  0.2869E+00  0.1356E+01  0.1389E+02  0.1385E+02
     21.074  0.7386E+00  0.3727E+00  0.1397E+02  0.1389E+02
     21.176  0.1456E+01  0.6147E+00  0.1411E+02  0.1395E+02
     21.277  0.1152E+01  0.1393E+01  0.1423E+02  0.1409E+02
     21.379  0.3191E+00  0.1261E+01  0.1426E+02  0.1422E+02
     21.481 -0.5873E-01  0.4279E+00  0.1426E+02  0.1426E+02
     21.583 -0.5563E-01 -0.3697E-01  0.1425E+02  0.1426E+02
     21.685 -0.1326E-01 -0.6365E-01  0.1425E+02  0.1425E+02
     21.787 -0.1529E-02 -0.1734E-01  0.1425E+02  0.1425E+02
     21.889 -0.9551E-04 -0.2208E-02  0.1425E+02  0.1425E+02
     21.990 -0.3366E-05 -0.1507E-03  0.1425E+02  0.1425E+02
     22.092 -0.6839E-07 -0.5781E-05  0.1425E+02  0.1425E+02
     22.194 -0.1376E-07 -0.1276E-06  0.1425E+02  0.1425E+02
     22.296 -0.7896E-06 -0.2627E-07  0.1425E+02  0.1425E+02
     22.398 -0.2782E-04 -0.1385E-05  0.1425E+02  0.1425E+02
     22.500 -0.5582E-03 -0.4496E-04  0.1425E+02  0.1425E+02
     22.601 -0.6189E-02 -0.8284E-03  0.1425E+02  0.1425E+02
     22.703 -0.3525E-01 -0.8375E-02  0.1425E+02  0.1425E+02
     22.805 -0.7819E-01 -0.4267E-01  0.1424E+02  0.1424E+02
     22.907  0.1019E+00 -0.7578E-01  0.1425E+02  0.1424E+02
     23.009  0.8232E+00  0.1737E+00  0.1433E+02  0.1425E+02
     23.111  0.1506E+01  0.9566E+00  0.1449E+02  0.1435E+02
     23.213  0.1172E+01  0.1529E+01  0.1460E+02  0.1451E+02
     23.314  0.3279E+00  0.1048E+01  0.1464E+02  0.1461E+02
     23.416 -0.5738E-01  0.2323E+00  0.1463E+02  0.1464E+02
     23.518 -0.5623E-01 -0.7072E-01  0.1463E+02  0.1463E+02
     23.620 -0.1353E-01 -0.4817E-01  0.1463E+02  0.1463E+02
     23.722 -0.1572E-02 -0.1026E-01  0.1463E+02  0.1463E+02
     23.824 -0.9880E-04 -0.1083E-02  0.1463E+02  0.1463E+02
     23.925 -0.3503E-05 -0.6243E-04  0.1463E+02  0.1463E+02
     24.027 -0.7148E-07 -0.2038E-05  0.1463E+02  0.1463E+02
     24.129 -0.8483E-09 -0.3835E-07  0.1463E+02  0.1463E+02
     24.231 -0.1966E-10 -0.4205E-09  0.1462E+02  0.1463E+02
     24.333 -0.1816E-08 -0.5196E-10  0.1462E+02  0.1462E+02
     24.435 -0.1402E-06 -0.5684E-08  0.1462E+02  0.1462E+02
     24.537 -0.6282E-05 -0.3830E-06  0.1462E+02  0.1462E+02
     24.638 -0.1616E-03 -0.1495E-04  0.1462E+02  0.1462E+02
     24.740 -0.2334E-02 -0.3338E-03  0.1462E+02  0.1462E+02
     24.842 -0.1805E-01 -0.4147E-02  0.1462E+02  0.1462E+02
     24.944 -0.6483E-01 -0.2700E-01  0.1462E+02  0.1462E+02
     25.046 -0.3251E-01 -0.7522E-01  0.1461E+02  0.1461E+02
     25.148  0.4482E+00  0.3120E-01  0.1466E+02  0.1462E+02
     25.249  0.1294E+01  0.6570E+00  0.1479E+02  0.1468E+02
     25.351  0.1450E+01  0.1440E+01  0.1494E+02  0.1483E+02
     25.453  0.6763E+00  0.1310E+01  0.1501E+02  0.1496E+02
     25.555  0.3271E-01  0.4652E+00  0.1501E+02  0.1501E+02
     25.657 -0.1103E+00 -0.3551E-01  0.1500E+02  0.1501E+02
     25.759 -0.1061E+00 -0.1054E+00  0.1499E+02  0.1500E+02
     25.861  0.8973E-01 -0.9617E-01  0.1500E+02  0.1499E+02
     25.962  0.8065E+00  0.1394E+00  0.1508E+02  0.1500E+02
     26.064  0.1502E+01  0.9007E+00  0.1523E+02  0.1509E+02
     26.166  0.1186E+01  0.1523E+01  0.1535E+02  0.1525E+02
     26.268  0.3402E+00  0.1101E+01  0.1539E+02  0.1536E+02
     26.370 -0.5858E-01  0.2681E+00  0.1538E+02  0.1539E+02
     26.472 -0.8071E-01 -0.8589E-01  0.1537E+02  0.1538E+02
     26.573 -0.8609E-01 -0.1191E+00  0.1537E+02  0.1537E+02
     26.675  0.2798E-02 -0.3275E-01  0.1537E+02  0.1536E+02
     26.777  0.5793E+00  0.4911E+00  0.1542E+02  0.1541E+02
     26.879  0.1395E+01  0.1332E+01  0.1557E+02  0.1555E+02
     26.981  0.1367E+01  0.1424E+01  0.1571E+02  0.1569E+02
     27.083  0.5388E+00  0.6280E+00  0.1576E+02  0.1576E+02
     27.185 -0.8278E-02  0.2074E-01  0.1576E+02  0.1576E+02
     27.286 -0.7254E-01 -0.7507E-01  0.1575E+02  0.1575E+02
     27.388 -0.3823E-01 -0.3372E-01  0.1575E+02  0.1575E+02
     27.490 -0.5191E-01 -0.3907E-01  0.1574E+02  0.1575E+02
     27.592  0.8731E-02 -0.4295E-01  0.1574E+02  0.1574E+02
     27.694  0.4044E+00  0.1906E+00  0.1579E+02  0.1576E+02
     27.796  0.9413E+00  0.7471E+00  0.1588E+02  0.1584E+02
     27.897  0.8983E+00  0.1013E+01  0.1597E+02  0.1594E+02
     27.999  0.3416E+00  0.5865E+00  0.1601E+02  0.1600E+02
     28.101 -0.1046E-01  0.8700E-01  0.1601E+02  0.1601E+02
     28.203 -0.4579E-01 -0.5186E-01  0.1600E+02  0.1600E+02
     28.305 -0.1377E-01 -0.2554E-01  0.1600E+02  0.1600E+02
     28.407 -0.1880E-02 -0.4697E-02  0.1600E+02  0.1600E+02
     28.509 -0.1365E-03 -0.4403E-03  0.1600E+02  0.1600E+02
     28.610 -0.5554E-05 -0.2275E-04  0.1600E+02  0.1600E+02
     28.712 -0.1295E-06 -0.6685E-06  0.1600E+02  0.1600E+02
     28.814 -0.1753E-08 -0.1135E-07  0.1600E+02  0.1600E+02
     28.916 -0.1387E-10 -0.1124E-09  0.1600E+02  0.1600E+02
     29.018 -0.6432E-13 -0.6524E-12  0.1600E+02  0.1600E+02
     29.120  0.0000E+00 -0.2180E-14  0.1600E+02  0.1600E+02
     29.222  0.0000E+00  0.0000E+00  0.1600E+02  0.1600E+02
     29.323  0.0000E+00  0.0000E+00  0.1600E+02  0.1600E+02
     29.425  0.0000E+00  0.0000E+00  0.1600E+02  0.1600E+02
     29.527  0.0000E+00  0.0000E+00  0.1600E+02  0.1600E+02
     29.629  0.0000E+00  0.0000E+00  0.1600E+02  0.1600E+02
     29.731  0.0000E+00  0.0000E+00  0.1600E+02  0.1600E+02
     29.833  0.0000E+00  0.0000E+00  0.1600E+02  0.1600E+02
