    2    2    1    2
  0.1090254E+02  0.2793739E-09  0.2793739E-09  0.2793739E-09  0.5000000E-15
  1.000000000000000E-004
  CAR 
 automatically generated by pyflamestk   
     20      4     16
 
  0.1250000E+00  0.1250000E+00  0.1250000E+00  0.1250000E+00
    1        1.298059      1.278475   1.000000   1.000000
    2        5.413294      5.713870   1.000000   1.000000
    3        5.413294      5.713870   1.000000   1.000000
    4        6.790707      7.366333   1.000000   1.000000
    5        6.790707      7.366333   1.000000   1.000000
    6        7.458838      8.064062   1.000000   1.000000
    7        7.942466      8.538043   1.000000   1.000003
    8        8.309289      8.766955   1.000000   1.001660
    9        8.309289      8.766955   1.000000   1.001660
   10        8.793219      9.441648   1.002850  -0.019911
   11        8.793219      9.441648   1.002850  -0.019911
   12       17.519193     17.610891   0.000000   0.000000
   13       17.519193     17.610891   0.000000   0.000000
   14       18.521269     18.622379   0.000000   0.000000
   15       27.789924     27.832586   0.000000   0.000000
   16       27.789924     27.832586   0.000000   0.000000
 
  0.3750000E+00  0.1250000E+00  0.1250000E+00  0.3750000E+00
    1        3.477310      3.493217   1.000000   1.000000
    2        5.537792      5.758579   1.000000   1.000000
    3        6.084147      6.435322   1.000000   1.000000
    4        6.640383      7.133635   1.000000   1.000000
    5        6.704468      7.254967   1.000000   1.000000
    6        7.061067      7.602151   1.000000   1.000000
    7        7.830078      8.315742   1.000000   1.000000
    8        7.907638      8.486122   1.000000   1.000000
    9        8.226101      8.837413   1.000000   1.006436
   10        8.687535      9.191299   1.000253   0.738704
   11        8.731014      9.315866   1.000741   0.239067
   12       11.495111     11.750805  -0.000000  -0.000000
   13       20.640355     20.765936   0.000000   0.000000
   14       21.143892     21.261116   0.000000   0.000000
   15       25.263395     25.339694   0.000000   0.000000
   16       26.035511     26.126762   0.000000   0.000000
 
  0.3750000E+00  0.3750000E+00  0.1250000E+00  0.3750000E+00
    1        4.580998      4.780114   1.000000   1.000000
    2        5.177989      5.516752   1.000000   1.000000
    3        6.134977      6.672148   1.000000   1.000000
    4        6.282576      6.809305   1.000000   1.000000
    5        7.070865      7.370468   1.000000   1.000000
    6        7.179581      7.500728   1.000000   1.000000
    7        8.128907      8.646005   1.000000   1.000082
    8        8.274255      8.780973   1.000000   1.002226
    9        8.495575      8.964661   1.000001   1.030660
   10        8.866828      9.464473   1.010316  -0.030945
   11        9.534946     10.079494  -0.030929  -0.000000
   12       12.086088     12.285990  -0.000000  -0.000000
   13       15.925726     16.191430   0.000000   0.000000
   14       19.157029     19.326625   0.000000   0.000000
   15       23.080111     23.166876   0.000000   0.000000
   16       26.876558     26.887265   0.000000   0.000000
 
  0.3750000E+00  0.3750000E+00  0.3750000E+00  0.1250000E+00
    1        5.693789      6.167707   1.000000   1.000000
    2        5.939292      6.202408   1.000000   1.000000
    3        6.017475      6.494889   1.000000   1.000000
    4        6.017475      6.494889   1.000000   1.000000
    5        6.339321      6.731834   1.000000   1.000000
    6        6.339321      6.731834   1.000000   1.000000
    7        8.481304      8.968194   1.000000   1.031345
    8        8.481304      8.968194   1.000000   1.031345
    9        8.488837      8.985680   1.000001   1.034135
   10        8.488837      8.985680   1.000001   1.034135
   11       12.009441     12.392909  -0.000000  -0.000000
   12       15.702681     15.899590   0.000000   0.000000
   13       15.702681     15.899590   0.000000   0.000000
   14       17.946344     18.122982   0.000000   0.000000
   15       20.740531     20.862802   0.000000   0.000000
   16       20.740531     20.862802   0.000000   0.000000
