automatically generated by pyflamestk   
           1
     2.793739    0.000000    0.000000
     0.000000    2.793739    0.000000
     0.000000    0.000000    2.793739
   Ni
   2
Direct configuration=     1
   0.00000000  0.00000000  0.00000000
   0.50000000  0.50000000  0.50000000
