    2    2    1    1
  0.9639684E+01  0.3009788E-09  0.3009788E-09  0.3009788E-09  0.5000000E-15
  1.000000000000000E-004
  CAR 
 automatically generated by pyflamestk   
      8     10     16
 
  0.1250000E+00  0.1250000E+00  0.1250000E+00  0.3125000E-01
    1      -13.647974   1.000000
    2        2.429194   1.000000
    3        3.271347   1.000000
    4        3.271348   1.000000
    5        8.681163   0.000000
    6       17.311273   0.000000
    7       19.315577   0.000000
    8       19.315580   0.000000
    9       23.529984   0.000000
   10       23.529985   0.000000
   11       24.868731   0.000000
   12       27.261310   0.000000
   13       28.687484   0.000000
   14       28.687485   0.000000
   15       38.926271   0.000000
   16       40.837201   0.000000
 
  0.3750000E+00  0.1250000E+00  0.1250000E+00  0.9375000E-01
    1      -13.002930   1.000000
    2        0.255162   1.000000
    3        2.415087   1.000000
    4        2.969299   1.000000
    5       11.106719   0.000000
    6       15.249919   0.000000
    7       18.618873   0.000000
    8       20.289986   0.000000
    9       22.113872   0.000000
   10       24.332248   0.000000
   11       26.412501   0.000000
   12       31.067289   0.000000
   13       32.332613   0.000000
   14       33.207550   0.000000
   15       35.573308   0.000000
   16       38.858052   0.000000
 
 -0.3750000E+00  0.1250000E+00  0.1250000E+00  0.9375000E-01
    1      -12.572580   1.000000
    2       -0.862973   1.000000
    3        2.261887   1.000000
    4        2.638259   1.000000
    5       11.714190   0.000000
    6       15.436025   0.000000
    7       17.911210   0.000000
    8       19.722669   0.000000
    9       23.698201   0.000000
   10       25.954973   0.000000
   11       26.025281   0.000000
   12       32.281760   0.000000
   13       32.884810   0.000000
   14       33.243781   0.000000
   15       35.803082   0.000000
   16       37.504432   0.000000
 
 -0.1250000E+00  0.1250000E+00  0.1250000E+00  0.9375000E-01
    1      -13.288512   1.000000
    2        1.137797   1.000000
    3        2.906140   1.000000
    4        2.911606   1.000000
    5       10.274252   0.000000
    6       15.499305   0.000000
    7       19.418825   0.000000
    8       19.908615   0.000000
    9       21.071702   0.000000
   10       24.911485   0.000000
   11       26.873038   0.000000
   12       29.956519   0.000000
   13       30.262863   0.000000
   14       30.994496   0.000000
   15       37.186155   0.000000
   16       38.972670   0.000000
 
  0.3750000E+00  0.3750000E+00  0.1250000E+00  0.9375000E-01
    1      -12.770029   1.000000
    2        0.074430   1.000000
    3        2.213885   1.000000
    4        2.446700   1.000000
    5       12.210341   0.000000
    6       13.910029   0.000000
    7       17.165781   0.000000
    8       20.788657   0.000000
    9       21.241455   0.000000
   10       27.085872   0.000000
   11       30.147127   0.000000
   12       30.401698   0.000000
   13       32.329449   0.000000
   14       34.823696   0.000000
   15       36.469916   0.000000
   16       37.872815   0.000000
 
 -0.3750000E+00  0.3750000E+00  0.1250000E+00  0.1875000E+00
    1      -12.363974   1.000000
    2       -0.036705   1.000000
    3        0.960298   1.000000
    4        2.036217   1.000000
    5       13.761461   0.000000
    6       14.778947   0.000000
    7       15.572144   0.000000
    8       19.543459   0.000000
    9       22.994158   0.000000
   10       26.444556   0.000000
   11       29.973865   0.000000
   12       31.414277   0.000000
   13       32.669899   0.000000
   14       36.336847   0.000000
   15       38.881427   0.000000
   16       41.087788   0.000000
 
 -0.1250000E+00  0.3750000E+00  0.1250000E+00  0.1875000E+00
    1      -12.616800   1.000000
    2       -0.244199   1.000000
    3        1.700484   1.000000
    4        2.534635   1.000000
    5       12.579915   0.000000
    6       14.801286   0.000000
    7       16.934796   0.000000
    8       20.121063   0.000000
    9       22.696998   0.000000
   10       25.355181   0.000000
   11       28.864726   0.000000
   12       31.642822   0.000000
   13       32.239909   0.000000
   14       34.883471   0.000000
   15       35.529006   0.000000
   16       41.008693   0.000000
 
 -0.3750000E+00 -0.3750000E+00  0.1250000E+00  0.9375000E-01
    1      -12.399540   1.000000
    2       -0.400827   1.000000
    3        1.696059   1.000000
    4        2.149738   1.000000
    5       12.852739   0.000000
    6       13.484809   0.000000
    7       16.023622   0.000000
    8       21.479107   0.000000
    9       21.496217   0.000000
   10       28.903867   0.000000
   11       29.395179   0.000000
   12       31.963278   0.000000
   13       32.661890   0.000000
   14       37.795876   0.000000
   15       38.168102   0.000000
   16       41.094491   0.000000
 
  0.3750000E+00  0.3750000E+00  0.3750000E+00  0.3125000E-01
    1      -12.806193   1.000000
    2       -0.599759   1.000000
    3        2.822317   1.000000
    4        2.822318   1.000000
    5       10.915760   0.000000
    6       15.444018   0.000000
    7       19.523444   0.000000
    8       19.523446   0.000000
    9       24.072664   0.000000
   10       24.444227   0.000000
   11       24.444230   0.000000
   12       31.895459   0.000000
   13       33.221971   0.000000
   14       33.221974   0.000000
   15       36.840634   0.000000
   16       36.840637   0.000000
 
 -0.3750000E+00  0.3750000E+00  0.3750000E+00  0.9375000E-01
    1      -12.446507   1.000000
    2       -0.276923   1.000000
    3        1.067605   1.000000
    4        2.508991   1.000000
    5       13.073484   0.000000
    6       15.249577   0.000000
    7       16.128836   0.000000
    8       20.432815   0.000000
    9       22.501395   0.000000
   10       25.548325   0.000000
   11       29.078737   0.000000
   12       31.625977   0.000000
   13       32.055403   0.000000
   14       35.368893   0.000000
   15       37.235909   0.000000
   16       40.112168   0.000000
