# ['Ni']

107 atoms
1 atom types

    0.0000    10.5641 xlo xhi
    0.0000    10.5641 ylo yhi
    0.0000    10.5641 zlo zhi

    0.0000    -0.0000    -0.0000 xy xz yz

Atoms

1 1     1.7607     1.7607     0.0000
2 1     1.7607     0.0000     1.7607
3 1     0.0000     1.7607     1.7607
4 1     0.0000     0.0000     3.5214
5 1     1.7607     1.7607     3.5214
6 1     1.7607     0.0000     5.2821
7 1     0.0000     1.7607     5.2821
8 1     0.0000     0.0000     7.0428
9 1     1.7607     1.7607     7.0428
10 1     1.7607     0.0000     8.8034
11 1     0.0000     1.7607     8.8034
12 1     0.0000     3.5214     0.0000
13 1     1.7607     5.2821     0.0000
14 1     1.7607     3.5214     1.7607
15 1     0.0000     5.2821     1.7607
16 1     0.0000     3.5214     3.5214
17 1     1.7607     5.2821     3.5214
18 1     1.7607     3.5214     5.2821
19 1     0.0000     5.2821     5.2821
20 1     0.0000     3.5214     7.0428
21 1     1.7607     5.2821     7.0428
22 1     1.7607     3.5214     8.8034
23 1     0.0000     5.2821     8.8034
24 1     0.0000     7.0428     0.0000
25 1     1.7607     8.8034     0.0000
26 1     1.7607     7.0428     1.7607
27 1     0.0000     8.8034     1.7607
28 1     0.0000     7.0428     3.5214
29 1     1.7607     8.8034     3.5214
30 1     1.7607     7.0428     5.2821
31 1     0.0000     8.8034     5.2821
32 1     0.0000     7.0428     7.0428
33 1     1.7607     8.8034     7.0428
34 1     1.7607     7.0428     8.8034
35 1     0.0000     8.8034     8.8034
36 1     3.5214     0.0000     0.0000
37 1     5.2821     1.7607     0.0000
38 1     5.2821     0.0000     1.7607
39 1     3.5214     1.7607     1.7607
40 1     3.5214     0.0000     3.5214
41 1     5.2821     1.7607     3.5214
42 1     5.2821     0.0000     5.2821
43 1     3.5214     1.7607     5.2821
44 1     3.5214     0.0000     7.0428
45 1     5.2821     1.7607     7.0428
46 1     5.2821     0.0000     8.8034
47 1     3.5214     1.7607     8.8034
48 1     3.5214     3.5214     0.0000
49 1     5.2821     5.2821     0.0000
50 1     5.2821     3.5214     1.7607
51 1     3.5214     5.2821     1.7607
52 1     3.5214     3.5214     3.5214
53 1     5.2821     5.2821     3.5214
54 1     5.2821     3.5214     5.2821
55 1     3.5214     5.2821     5.2821
56 1     3.5214     3.5214     7.0428
57 1     5.2821     5.2821     7.0428
58 1     5.2821     3.5214     8.8034
59 1     3.5214     5.2821     8.8034
60 1     3.5214     7.0428     0.0000
61 1     5.2821     8.8034     0.0000
62 1     5.2821     7.0428     1.7607
63 1     3.5214     8.8034     1.7607
64 1     3.5214     7.0428     3.5214
65 1     5.2821     8.8034     3.5214
66 1     5.2821     7.0428     5.2821
67 1     3.5214     8.8034     5.2821
68 1     3.5214     7.0428     7.0428
69 1     5.2821     8.8034     7.0428
70 1     5.2821     7.0428     8.8034
71 1     3.5214     8.8034     8.8034
72 1     7.0428     0.0000     0.0000
73 1     8.8034     1.7607     0.0000
74 1     8.8034     0.0000     1.7607
75 1     7.0428     1.7607     1.7607
76 1     7.0428     0.0000     3.5214
77 1     8.8034     1.7607     3.5214
78 1     8.8034     0.0000     5.2821
79 1     7.0428     1.7607     5.2821
80 1     7.0428     0.0000     7.0428
81 1     8.8034     1.7607     7.0428
82 1     8.8034     0.0000     8.8034
83 1     7.0428     1.7607     8.8034
84 1     7.0428     3.5214     0.0000
85 1     8.8034     5.2821     0.0000
86 1     8.8034     3.5214     1.7607
87 1     7.0428     5.2821     1.7607
88 1     7.0428     3.5214     3.5214
89 1     8.8034     5.2821     3.5214
90 1     8.8034     3.5214     5.2821
91 1     7.0428     5.2821     5.2821
92 1     7.0428     3.5214     7.0428
93 1     8.8034     5.2821     7.0428
94 1     8.8034     3.5214     8.8034
95 1     7.0428     5.2821     8.8034
96 1     7.0428     7.0428     0.0000
97 1     8.8034     8.8034     0.0000
98 1     8.8034     7.0428     1.7607
99 1     7.0428     8.8034     1.7607
100 1     7.0428     7.0428     3.5214
101 1     8.8034     8.8034     3.5214
102 1     8.8034     7.0428     5.2821
103 1     7.0428     8.8034     5.2821
104 1     7.0428     7.0428     7.0428
105 1     8.8034     8.8034     7.0428
106 1     8.8034     7.0428     8.8034
107 1     7.0428     8.8034     8.8034
