   2   2   0   0
  0.9639684E+01  0.3009788E-09  0.3009788E-09  0.3009788E-09  0.5000000E-15
  1.000000000000000E-004
  CAR 
 automatically generated by pyflamestk   
     43.83085284    -16.33141729  301      3.54719946      1.00000000
    -16.331  0.0000E+00  0.0000E+00
    -16.131  0.0000E+00  0.0000E+00
    -15.930  0.0000E+00  0.0000E+00
    -15.730  0.0000E+00  0.0000E+00
    -15.529  0.0000E+00  0.0000E+00
    -15.329  0.0000E+00  0.0000E+00
    -15.128  0.0000E+00  0.0000E+00
    -14.928  0.0000E+00  0.0000E+00
    -14.727  0.0000E+00  0.0000E+00
    -14.527  0.0000E+00  0.0000E+00
    -14.326  0.0000E+00  0.0000E+00
    -14.125  0.0000E+00  0.0000E+00
    -13.925  0.0000E+00  0.0000E+00
    -13.724  0.4780E-04  0.9585E-05
    -13.524  0.3055E+00  0.6128E-01
    -13.323  0.1203E-01  0.6369E-01
    -13.123  0.9284E+00  0.2499E+00
    -12.922  0.7150E+00  0.3932E+00
    -12.722  0.8426E+00  0.5622E+00
    -12.521  0.2618E+01  0.1087E+01
    -12.321  0.2970E+01  0.1683E+01
    -12.120  0.1582E+01  0.2000E+01
    -11.920  0.1903E-06  0.2000E+01
    -11.719  0.0000E+00  0.2000E+01
    -11.518  0.0000E+00  0.2000E+01
    -11.318  0.0000E+00  0.2000E+01
    -11.117  0.0000E+00  0.2000E+01
    -10.917  0.0000E+00  0.2000E+01
    -10.716  0.0000E+00  0.2000E+01
    -10.516  0.0000E+00  0.2000E+01
    -10.315  0.0000E+00  0.2000E+01
    -10.115  0.0000E+00  0.2000E+01
     -9.914  0.0000E+00  0.2000E+01
     -9.714  0.0000E+00  0.2000E+01
     -9.513  0.0000E+00  0.2000E+01
     -9.312  0.0000E+00  0.2000E+01
     -9.112  0.0000E+00  0.2000E+01
     -8.911  0.0000E+00  0.2000E+01
     -8.711  0.0000E+00  0.2000E+01
     -8.510  0.0000E+00  0.2000E+01
     -8.310  0.0000E+00  0.2000E+01
     -8.109  0.0000E+00  0.2000E+01
     -7.909  0.0000E+00  0.2000E+01
     -7.708  0.0000E+00  0.2000E+01
     -7.508  0.0000E+00  0.2000E+01
     -7.307  0.0000E+00  0.2000E+01
     -7.107  0.0000E+00  0.2000E+01
     -6.906  0.0000E+00  0.2000E+01
     -6.705  0.0000E+00  0.2000E+01
     -6.505  0.0000E+00  0.2000E+01
     -6.304  0.0000E+00  0.2000E+01
     -6.104  0.0000E+00  0.2000E+01
     -5.903  0.0000E+00  0.2000E+01
     -5.703  0.0000E+00  0.2000E+01
     -5.502  0.0000E+00  0.2000E+01
     -5.302  0.0000E+00  0.2000E+01
     -5.101  0.0000E+00  0.2000E+01
     -4.901  0.0000E+00  0.2000E+01
     -4.700  0.0000E+00  0.2000E+01
     -4.500  0.0000E+00  0.2000E+01
     -4.299  0.0000E+00  0.2000E+01
     -4.098  0.0000E+00  0.2000E+01
     -3.898  0.0000E+00  0.2000E+01
     -3.697  0.0000E+00  0.2000E+01
     -3.497  0.0000E+00  0.2000E+01
     -3.296  0.0000E+00  0.2000E+01
     -3.096  0.0000E+00  0.2000E+01
     -2.895  0.0000E+00  0.2000E+01
     -2.695  0.0000E+00  0.2000E+01
     -2.494  0.0000E+00  0.2000E+01
     -2.294  0.0000E+00  0.2000E+01
     -2.093  0.0000E+00  0.2000E+01
     -1.892  0.0000E+00  0.2000E+01
     -1.692  0.0000E+00  0.2000E+01
     -1.491  0.0000E+00  0.2000E+01
     -1.291  0.0000E+00  0.2000E+01
     -1.090  0.1189E-09  0.2000E+01
     -0.890  0.2404E+00  0.2048E+01
     -0.689  0.6964E+00  0.2188E+01
     -0.489  0.3174E+00  0.2252E+01
     -0.288  0.1569E+01  0.2566E+01
     -0.088  0.2347E+01  0.3037E+01
      0.113  0.2508E+01  0.3540E+01
      0.313  0.1003E+01  0.3741E+01
      0.514  0.4483E-01  0.3750E+01
      0.715  0.1860E-10  0.3750E+01
      0.915  0.2813E+00  0.3806E+01
      1.116  0.2745E+01  0.4357E+01
      1.316  0.7137E+00  0.4500E+01
      1.517  0.1746E-05  0.4500E+01
      1.717  0.2214E+01  0.4944E+01
      1.918  0.5929E+00  0.5063E+01
      2.118  0.2110E+01  0.5486E+01
      2.319  0.2543E+01  0.5996E+01
      2.519  0.3751E+01  0.6748E+01
      2.720  0.2188E+01  0.7187E+01
      2.921  0.2236E+01  0.7636E+01
      3.121  0.1194E+01  0.7875E+01
      3.322  0.6039E+00  0.7996E+01
      3.522  0.1938E-01  0.8000E+01
      3.723  0.0000E+00  0.8000E+01
      3.923  0.0000E+00  0.8000E+01
      4.124  0.0000E+00  0.8000E+01
      4.324  0.0000E+00  0.8000E+01
      4.525  0.0000E+00  0.8000E+01
      4.725  0.0000E+00  0.8000E+01
      4.926  0.0000E+00  0.8000E+01
      5.126  0.0000E+00  0.8000E+01
      5.327  0.0000E+00  0.8000E+01
      5.528  0.0000E+00  0.8000E+01
      5.728  0.0000E+00  0.8000E+01
      5.929  0.0000E+00  0.8000E+01
      6.129  0.0000E+00  0.8000E+01
      6.330  0.0000E+00  0.8000E+01
      6.530  0.0000E+00  0.8000E+01
      6.731  0.0000E+00  0.8000E+01
      6.931  0.0000E+00  0.8000E+01
      7.132  0.0000E+00  0.8000E+01
      7.332  0.0000E+00  0.8000E+01
      7.533  0.0000E+00  0.8000E+01
      7.733  0.0000E+00  0.8000E+01
      7.934  0.0000E+00  0.8000E+01
      8.135  0.0000E+00  0.8000E+01
      8.335  0.0000E+00  0.8000E+01
      8.536  0.6053E-06  0.8000E+01
      8.736  0.2662E+00  0.8053E+01
      8.937  0.4543E-01  0.8062E+01
      9.137  0.0000E+00  0.8062E+01
      9.338  0.0000E+00  0.8062E+01
      9.538  0.0000E+00  0.8062E+01
      9.739  0.0000E+00  0.8062E+01
      9.939  0.0000E+00  0.8062E+01
     10.140  0.1720E-04  0.8063E+01
     10.341  0.8778E+00  0.8239E+01
     10.541  0.5715E-01  0.8250E+01
     10.742  0.1796E-07  0.8250E+01
     10.942  0.2010E+00  0.8290E+01
     11.143  0.8241E+00  0.8456E+01
     11.343  0.2216E+00  0.8500E+01
     11.544  0.1927E-06  0.8500E+01
     11.744  0.6813E+00  0.8637E+01
     11.945  0.2536E+00  0.8687E+01
     12.145  0.2537E-01  0.8693E+01
     12.346  0.9095E+00  0.8875E+01
     12.546  0.2867E+00  0.8932E+01
     12.747  0.1585E+01  0.9250E+01
     12.948  0.9305E+00  0.9437E+01
     13.148  0.9227E+00  0.9622E+01
     13.349  0.1553E-01  0.9625E+01
     13.549  0.9015E+00  0.9806E+01
     13.750  0.8090E+00  0.9968E+01
     13.950  0.1927E+01  0.1035E+02
     14.151  0.1018E+00  0.1037E+02
     14.351  0.0000E+00  0.1038E+02
     14.552  0.1340E-08  0.1038E+02
     14.752  0.9474E+00  0.1056E+02
     14.953  0.2793E+01  0.1112E+02
     15.154  0.2084E-01  0.1113E+02
     15.354  0.1889E+01  0.1151E+02
     15.555  0.2908E+01  0.1209E+02
     15.755  0.1104E+01  0.1231E+02
     15.956  0.6737E-01  0.1233E+02
     16.156  0.1653E+01  0.1266E+02
     16.357  0.1500E+00  0.1269E+02
     16.557  0.0000E+00  0.1269E+02
     16.758  0.8847E-06  0.1269E+02
     16.958  0.1457E+01  0.1298E+02
     17.159  0.8697E+00  0.1315E+02
     17.359  0.7666E+00  0.1331E+02
     17.560  0.2309E-01  0.1331E+02
     17.761  0.1109E-04  0.1331E+02
     17.961  0.8656E+00  0.1349E+02
     18.162  0.6934E-01  0.1350E+02
     18.362  0.2797E-12  0.1350E+02
     18.563  0.5906E-01  0.1351E+02
     18.763  0.8759E+00  0.1369E+02
     18.964  0.1599E-04  0.1369E+02
     19.164  0.4549E-05  0.1369E+02
     19.365  0.6299E+00  0.1381E+02
     19.565  0.2798E+01  0.1437E+02
     19.766  0.1464E+01  0.1467E+02
     19.966  0.9919E+00  0.1487E+02
     20.167  0.1761E+01  0.1522E+02
     20.368  0.1113E+01  0.1544E+02
     20.568  0.9032E+00  0.1562E+02
     20.769  0.3591E+00  0.1570E+02
     20.969  0.5780E+00  0.1581E+02
     21.170  0.9616E+00  0.1601E+02
     21.370  0.9086E+00  0.1619E+02
     21.571  0.1858E+01  0.1656E+02
     21.771  0.9129E-02  0.1656E+02
     21.972  0.2726E-04  0.1656E+02
     22.172  0.8889E+00  0.1674E+02
     22.373  0.4606E-01  0.1675E+02
     22.574  0.9016E+00  0.1693E+02
     22.774  0.1878E+01  0.1731E+02
     22.975  0.6373E+00  0.1744E+02
     23.175  0.1258E+01  0.1769E+02
     23.376  0.4321E-05  0.1769E+02
     23.576  0.5651E+00  0.1780E+02
     23.777  0.9816E+00  0.1800E+02
     23.977  0.1297E-01  0.1800E+02
     24.178  0.3099E+00  0.1806E+02
     24.378  0.8821E+00  0.1824E+02
     24.579  0.6765E+00  0.1837E+02
     24.779  0.3141E-02  0.1838E+02
     24.980  0.1220E+01  0.1862E+02
     25.181  0.2340E-01  0.1863E+02
     25.381  0.1451E+01  0.1892E+02
     25.582  0.1191E+01  0.1915E+02
     25.782  0.1628E+00  0.1919E+02
     25.983  0.9088E+00  0.1937E+02
     26.183  0.9611E+00  0.1956E+02
     26.384  0.3173E+00  0.1963E+02
     26.584  0.2488E+01  0.2012E+02
     26.785  0.8242E-02  0.2013E+02
     26.985  0.9290E+00  0.2031E+02
     27.186  0.9376E+00  0.2050E+02
     27.386  0.3067E+00  0.2056E+02
     27.587  0.4250E-04  0.2056E+02
     27.788  0.0000E+00  0.2056E+02
     27.988  0.0000E+00  0.2056E+02
     28.189  0.0000E+00  0.2056E+02
     28.389  0.6920E-16  0.2056E+02
     28.590  0.3362E-02  0.2056E+02
     28.790  0.6583E+00  0.2070E+02
     28.991  0.2760E+01  0.2125E+02
     29.191  0.9408E+00  0.2144E+02
     29.392  0.4791E+00  0.2153E+02
     29.592  0.4563E+00  0.2162E+02
     29.793  0.4213E-05  0.2163E+02
     29.994  0.2151E+01  0.2206E+02
     30.194  0.1545E+01  0.2237E+02
     30.395  0.1404E+01  0.2265E+02
     30.595  0.5099E+00  0.2275E+02
     30.796  0.8174E-07  0.2275E+02
     30.996  0.6527E+00  0.2288E+02
     31.197  0.1217E+01  0.2312E+02
     31.397  0.9031E+00  0.2331E+02
     31.598  0.1622E+01  0.2363E+02
     31.798  0.2151E+01  0.2406E+02
     31.999  0.1240E+01  0.2431E+02
     32.199  0.1276E+01  0.2457E+02
     32.400  0.4314E+01  0.2543E+02
     32.601  0.1269E+00  0.2546E+02
     32.801  0.2728E+01  0.2600E+02
     33.002  0.9113E+00  0.2619E+02
     33.202  0.8200E+00  0.2635E+02
     33.403  0.1673E+01  0.2669E+02
     33.603  0.1748E-05  0.2669E+02
     33.804  0.0000E+00  0.2669E+02
     34.004  0.0000E+00  0.2669E+02
     34.205  0.0000E+00  0.2669E+02
     34.405  0.0000E+00  0.2669E+02
     34.606  0.9682E-09  0.2669E+02
     34.807  0.3825E+00  0.2676E+02
     35.007  0.2422E+01  0.2725E+02
     35.208  0.3527E-03  0.2725E+02
     35.408  0.8397E+00  0.2742E+02
     35.609  0.2735E+01  0.2797E+02
     35.809  0.7948E+00  0.2813E+02
     36.010  0.3057E+00  0.2819E+02
     36.210  0.4819E-03  0.2819E+02
     36.411  0.1903E+01  0.2857E+02
     36.611  0.9014E+00  0.2875E+02
     36.812  0.1386E+00  0.2878E+02
     37.012  0.4847E+00  0.2888E+02
     37.213  0.1018E+01  0.2908E+02
     37.414  0.8581E+00  0.2925E+02
     37.614  0.9284E+00  0.2944E+02
     37.815  0.7422E+00  0.2959E+02
     38.015  0.1128E+01  0.2981E+02
     38.216  0.8499E+00  0.2998E+02
     38.416  0.8511E-01  0.3000E+02
     38.617  0.4779E-10  0.3000E+02
     38.817  0.2757E+00  0.3006E+02
     39.018  0.3752E+01  0.3081E+02
     39.218  0.2405E-01  0.3081E+02
     39.419  0.0000E+00  0.3081E+02
     39.619  0.0000E+00  0.3081E+02
     39.820  0.1038E-15  0.3081E+02
     40.021  0.5436E-02  0.3081E+02
     40.221  0.9288E+00  0.3100E+02
     40.422  0.7661E-03  0.3100E+02
     40.622  0.9471E-07  0.3100E+02
     40.823  0.2346E+00  0.3105E+02
     41.023  0.1458E+01  0.3134E+02
     41.224  0.3294E+01  0.3200E+02
     41.424  0.2264E-03  0.3200E+02
     41.625  0.0000E+00  0.3200E+02
     41.825  0.0000E+00  0.3200E+02
     42.026  0.0000E+00  0.3200E+02
     42.227  0.0000E+00  0.3200E+02
     42.427  0.0000E+00  0.3200E+02
     42.628  0.0000E+00  0.3200E+02
     42.828  0.0000E+00  0.3200E+02
     43.029  0.0000E+00  0.3200E+02
     43.229  0.0000E+00  0.3200E+02
     43.430  0.0000E+00  0.3200E+02
     43.630  0.0000E+00  0.3200E+02
     43.831  0.0000E+00  0.3200E+02
