# ['Ni']

20 atoms
1 atom types

    0.0000     3.3558 xlo xhi
    0.0000     3.3558 ylo yhi
    0.0000    33.5581 zlo zhi

    0.0000    -0.0000     0.0000 xy xz yz

Atoms

1 1     0.0000     0.0000     0.0000
2 1     1.6779     1.6779     0.0000
3 1     1.6779     0.0000     1.6779
4 1     0.0000     1.6779     1.6779
5 1     0.0000     0.0000     3.3558
6 1     1.6779     1.6779     3.3558
7 1     1.6779     0.0000     5.0337
8 1     0.0000     1.6779     5.0337
9 1     0.0000     0.0000     6.7116
10 1     1.6779     1.6779     6.7116
11 1     1.6779     0.0000     8.3895
12 1     0.0000     1.6779     8.3895
13 1     0.0000     0.0000    10.0674
14 1     1.6779     1.6779    10.0674
15 1     1.6779     0.0000    11.7453
16 1     0.0000     1.6779    11.7453
17 1     0.0000     0.0000    13.4232
18 1     1.6779     1.6779    13.4232
19 1     1.6779     0.0000    15.1011
20 1     0.0000     1.6779    15.1011
