LAMMPS (11 Aug 2017)
Reading data file ...
  triclinic box = (0 0 0) to (2.4877 4.3089 36.556) with tilt (0 0 -0.0004)
  1 by 1 by 1 MPI processor grid
  reading atoms ...
  18 atoms
18 atoms in group Ni
Neighbor list info ...
  update every 1 steps, delay 0 steps, check yes
  max neighbors/atom: 2000, page size: 100000
  master list distance cutoff = 11
  ghost atom cutoff = 11
  binsize = 5.5, bins = 1 1 7
  1 neighbor lists, perpetual/occasional/extra = 1 0 0
  (1) pair eam/alloy, perpetual
      attributes: half, newton on
      pair build: half/bin/newton/tri
      stencil: half/bin/3d/newton/tri
      bin: standard
Setting up cg style minimization ...
  Unit style    : metal
  Current step  : 0
Per MPI rank memory allocation (min/avg/max) = 4.343 | 4.343 | 4.343 Mbytes
Step PotEng Lx Ly Lz Xy Xz Yz Press Pxx Pyy Pzz Pxy Pxz Pyz c_eatoms 
       0   -79.243063       2.4877       4.3089       36.556            0            0      -0.0004   -17746.395   -21127.377   -21131.661   -10980.148 -0.00044118182 -0.00015133636    1.0153375   -79.243063 
       1   -79.299524       2.4877       4.3089       36.556            0            0      -0.0004   -13361.565   -16897.996   -16902.327   -6284.3712 -3.8187866e-05 3.4780558e-05    1.0457426   -79.299524 
       2   -79.305464       2.4877       4.3089       36.556            0            0      -0.0004   -11212.875   -14905.319   -14909.635   -3823.6716 -6.4644139e-06 3.6083908e-06     1.043771   -79.305464 
       3   -79.306318       2.4877       4.3089       36.556            0            0      -0.0004   -10919.178   -14667.604   -14671.885   -3418.0448 -2.8155422e-07 9.4528032e-07    1.0240282   -79.306318 
       4   -79.307026       2.4877       4.3089       36.556            0            0      -0.0004   -9230.7202   -13143.138   -13147.308   -1401.7147 2.2918982e-06 6.4521726e-06   0.96248766   -79.307026 
       5   -79.307678       2.4877       4.3089       36.556            0            0      -0.0004   -8268.0598    -12317.03   -12321.072   -166.07742 -7.0403184e-06 2.1473539e-06   0.88878982   -79.307678 
       6   -79.307853       2.4877       4.3089       36.556            0            0      -0.0004   -8108.9672   -12182.902   -12186.903    42.903239 -3.2449557e-06 -9.5421091e-07   0.86444393   -79.307853 
       7   -79.307857       2.4877       4.3089       36.556            0            0      -0.0004   -8113.4352   -12187.181   -12191.174    38.049358 -1.7436577e-06 -1.0648447e-06   0.86029469   -79.307857 
       8   -79.307857       2.4877       4.3089       36.556            0            0      -0.0004   -8120.7643   -12193.789   -12197.774    29.269671 -1.1314455e-06 -1.0421545e-06   0.85504869   -79.307857 
       9   -79.307857       2.4877       4.3089       36.556            0            0      -0.0004   -8130.3738   -12202.487   -12206.452     17.81777 -6.5744233e-07 -7.7348041e-07   0.84240822   -79.307857 
      10   -79.307857       2.4877       4.3089       36.556            0            0      -0.0004   -8142.2642   -12212.718   -12216.625    2.5505146 -5.1635018e-07 1.5647923e-07   0.80665438   -79.307857 
      11   -79.307857       2.4877       4.3089       36.556            0            0      -0.0004   -8145.5723   -12215.725   -12219.609   -1.3831234 -3.1655601e-07 1.8156476e-07   0.79274998   -79.307857 
      12   -79.307857       2.4877       4.3089       36.556            0            0      -0.0004   -8144.9838   -12215.175   -12219.044  -0.73214806 -1.5093031e-07 5.5043449e-08    0.7835565   -79.307857 
      13   -79.307857       2.4877       4.3089       36.556            0            0      -0.0004     -8144.94   -12215.155   -12219.003  -0.66234995 -8.4560651e-08 -5.5857124e-08   0.77041138   -79.307857 
      14   -79.307857       2.4877       4.3089       36.556            0            0      -0.0004   -8144.6259   -12214.893   -12218.693  -0.29248037 -1.8982047e-07 -2.0433692e-07   0.74140354   -79.307857 
      15   -79.307857       2.4877       4.3089       36.556            0            0      -0.0004   -8144.5345   -12214.845   -12218.595  -0.16350398 -3.3452243e-07 -2.7781725e-07   0.71008899   -79.307857 
      16   -79.307857       2.4877       4.3089       36.556            0            0      -0.0004   -8144.2272   -12214.636   -12218.271    0.2249213 -3.8033946e-07 -3.4516891e-07   0.63999998   -79.307857 
      17   -79.307857       2.4877       4.3089       36.556            0            0      -0.0004   -8143.7358   -12214.263   -12217.767   0.82303264 -2.367649e-07 -3.3111071e-07   0.55957197   -79.307857 
      18   -79.307857       2.4877       4.3089       36.556            0            0      -0.0004   -8143.5865   -12214.178   -12217.584    1.0025221 -1.7708592e-07 -1.9934508e-07   0.49947383   -79.307857 
      19   -79.307857       2.4877       4.3089       36.556            0            0      -0.0004   -8143.6947   -12214.402   -12217.562   0.88020541 3.1994909e-07 3.2667916e-07   0.34869782   -79.307857 
      20   -79.307857       2.4877       4.3089       36.556            0            0      -0.0004   -8143.7886   -12214.562    -12217.55    0.7452965 6.9078444e-07 6.3378943e-07   0.24263162   -79.307857 
      21   -79.307857       2.4877       4.3089       36.556            0            0      -0.0004   -8144.2815   -12215.106   -12217.904   0.16552226 3.1695427e-07 7.0355457e-07   0.12541223   -79.307857 
      22   -79.307857       2.4877       4.3089       36.556            0            0      -0.0004   -8144.3534   -12215.232   -12217.881  0.053098965 2.4840356e-07 4.7967291e-07   0.03488733   -79.307857 
      23   -79.307857       2.4877       4.3089       36.556            0            0      -0.0004   -8144.4224   -12215.316   -12217.924 -0.027881421  2.52785e-07 3.1578198e-07 0.0094807201   -79.307857 
      24   -79.307857       2.4877       4.3089       36.556            0            0      -0.0004   -8144.4382   -12215.336    -12217.93 -0.047781512 1.8596614e-07 2.1221442e-07 0.00086511778   -79.307857 
      25   -79.307857       2.4877       4.3089       36.556            0            0      -0.0004   -8144.4428   -12215.343   -12217.932  -0.05329609 1.2291211e-07 1.4751615e-07 -0.0018520903   -79.307857 
      26   -79.307857       2.4877       4.3089       36.556            0            0      -0.0004   -8144.4394   -12215.341   -12217.929 -0.048772427 6.9488967e-08 8.4857091e-08 -0.0030097689   -79.307857 
      27   -79.307857       2.4877       4.3089       36.556            0            0      -0.0004   -8144.4318   -12215.335   -12217.922 -0.038876488 3.9320921e-08 4.7954894e-08 -0.003191586   -79.307857 
      28   -79.307857       2.4877       4.3089       36.556            0            0      -0.0004   -8144.4118   -12215.316   -12217.904 -0.015299012 1.0484749e-08 1.2475743e-08 -0.0029813529   -79.307857 
      29   -79.307857       2.4877       4.3089       36.556            0            0      -0.0004   -8144.4072   -12215.312   -12217.901 -0.0086612193 -1.0363294e-08 -1.2891796e-08 -0.0023654071   -79.307857 
      30   -79.307857       2.4877       4.3089       36.556            0            0      -0.0004      -8144.4   -12215.305   -12217.895 -0.00014363961 -1.8318432e-08 -2.220521e-08 -0.0017334701   -79.307857 
      31   -79.307857       2.4877       4.3089       36.556            0            0      -0.0004   -8144.3979   -12215.303   -12217.894 0.0026875232 -1.8544754e-08 -2.2643264e-08 -0.0010763594   -79.307857 
      32   -79.307857       2.4877       4.3089       36.556            0            0      -0.0004   -8144.3961   -12215.301   -12217.892 0.0048216336 -1.6814045e-08 -2.0501351e-08 -0.00078406833   -79.307857 
      33   -79.307857       2.4877       4.3089       36.556            0            0      -0.0004   -8144.3958     -12215.3   -12217.892 0.0051462796 -1.3431278e-08 -1.6437993e-08 -0.00052718282   -79.307857 
      34   -79.307857       2.4877       4.3089       36.556            0            0      -0.0004   -8144.3969   -12215.301   -12217.893 0.0037463803 -8.8886492e-09 -1.0888251e-08 -0.00021399918   -79.307857 
      35   -79.307857       2.4877       4.3089       36.556            0            0      -0.0004   -8144.3986   -12215.302   -12217.895 0.0017201267 -6.2777577e-09 -7.7345354e-09 -2.1301996e-05   -79.307857 
      36   -79.307857       2.4877       4.3089       36.556            0            0      -0.0004   -8144.3988   -12215.303   -12217.895 0.0015006727 -6.1755676e-09 -7.581625e-09 1.0311397e-05   -79.307857 
      37   -79.307857       2.4877       4.3089       36.556            0            0      -0.0004   -8144.3993   -12215.303   -12217.896 0.00090209744 -6.6847578e-09 -8.2211479e-09 1.6750924e-05   -79.307857 
      38   -79.307857       2.4877       4.3089       36.556            0            0      -0.0004   -8144.3996   -12215.303   -12217.896 0.00044445365 -7.6409258e-09 -9.4956319e-09 1.2258878e-05   -79.307857 
      39   -79.307857       2.4877       4.3089       36.556            0            0      -0.0004   -8144.3999   -12215.304   -12217.896 5.5175074e-05 -8.2610684e-09 -1.0113166e-08 7.1108817e-06   -79.307857 
      40   -79.307857       2.4877       4.3089       36.556            0            0      -0.0004      -8144.4   -12215.304   -12217.896 -5.6234745e-05 -8.294317e-09 -1.0198307e-08 5.0911423e-06   -79.307857 
      41   -79.307857       2.4877       4.3089       36.556            0            0      -0.0004      -8144.4   -12215.304   -12217.896 -6.5794548e-05 -8.2351551e-09 -1.0142554e-08 3.4313722e-06   -79.307857 
      42   -79.307857       2.4877       4.3089       36.556            0            0      -0.0004      -8144.4   -12215.304   -12217.896 -4.9098129e-05 -8.1609459e-09 -1.0026503e-08 2.2996454e-06   -79.307857 
      43   -79.307857       2.4877       4.3089       36.556            0            0      -0.0004      -8144.4   -12215.304   -12217.896 -4.3728054e-05 -8.0943361e-09 -9.9501405e-09 2.034042e-06   -79.307857 
      44   -79.307857       2.4877       4.3089       36.556            0            0      -0.0004      -8144.4   -12215.304   -12217.896 -2.858244e-05 -7.9681311e-09 -9.8092435e-09 1.8813732e-06   -79.307857 
      45   -79.307857       2.4877       4.3089       36.556            0            0      -0.0004      -8144.4   -12215.304   -12217.896 -2.1844221e-05 -7.7482572e-09 -9.5154826e-09 1.8122897e-06   -79.307857 
      46   -79.307857       2.4877       4.3089       36.556            0            0      -0.0004      -8144.4   -12215.304   -12217.896 -1.0662841e-05 -7.5212395e-09 -9.2912588e-09 1.8124379e-06   -79.307857 
      47   -79.307857       2.4877       4.3089       36.556            0            0      -0.0004      -8144.4   -12215.304   -12217.896 -2.180811e-06 -7.3630726e-09 -8.9829959e-09 1.8389023e-06   -79.307857 
      48   -79.307857       2.4877       4.3089       36.556            0            0      -0.0004      -8144.4   -12215.304   -12217.896 3.0494833e-07 -7.2549964e-09 -8.8567977e-09 1.8512793e-06   -79.307857 
      49   -79.307857       2.4877       4.3089       36.556            0            0      -0.0004      -8144.4   -12215.304   -12217.896 9.9470254e-07 -7.1720951e-09 -8.8341653e-09 1.8532477e-06   -79.307857 
      50   -79.307857       2.4877       4.3089       36.556            0            0      -0.0004      -8144.4   -12215.304   -12217.896 7.1995098e-07 -7.0160139e-09 -8.687207e-09 1.8470775e-06   -79.307857 
      51   -79.307857       2.4877       4.3089       36.556            0            0      -0.0004      -8144.4   -12215.304   -12217.896 3.610406e-07 -6.7632859e-09 -8.315587e-09 1.8171402e-06   -79.307857 
      52   -79.307857       2.4877       4.3089       36.556            0            0      -0.0004      -8144.4   -12215.304   -12217.896 -5.1075459e-08 -6.3348787e-09 -7.70661e-09 1.7421979e-06   -79.307857 
      53   -79.307857       2.4877       4.3089       36.556            0            0      -0.0004      -8144.4   -12215.304   -12217.896 -3.4651064e-07 -5.6563649e-09 -6.9112314e-09 1.5753789e-06   -79.307857 
      54   -79.307857       2.4877       4.3089       36.556            0            0      -0.0004      -8144.4   -12215.304   -12217.896 -3.9079403e-07 -5.6225947e-09 -6.8616768e-09 1.5478708e-06   -79.307857 
      55   -79.307857       2.4877       4.3089       36.556            0            0      -0.0004      -8144.4   -12215.304   -12217.896 -3.5117945e-07 -5.5099517e-09 -6.7635175e-09 1.4838314e-06   -79.307857 
      56   -79.307857       2.4877       4.3089       36.556            0            0      -0.0004      -8144.4   -12215.304   -12217.896 -3.7850406e-07 -5.434256e-09 -6.5975892e-09 1.4211529e-06   -79.307857 
      57   -79.307857       2.4877       4.3089       36.556            0            0      -0.0004      -8144.4   -12215.304   -12217.896 8.4340708e-08 -5.2329899e-09 -6.3947031e-09 1.3435348e-06   -79.307857 
      58   -79.307857       2.4877       4.3089       36.556            0            0      -0.0004      -8144.4   -12215.304   -12217.896 8.4340708e-08 -5.2329899e-09 -6.3947031e-09 1.3435348e-06   -79.307857 
Loop time of 0.0476272 on 1 procs for 58 steps with 18 atoms

61.8% CPU use with 1 MPI tasks x no OpenMP threads

Minimization stats:
  Stopping criterion = linesearch alpha is zero
  Energy initial, next-to-last, final = 
         -79.243062733     -79.3078574405     -79.3078574405
  Force two-norm initial, final = 0.856435 2.55987e-11
  Force max component initial, final = 0.312288 9.85911e-12
  Final line search alpha, max atom move = 0.5 4.92956e-12
  Iterations, force evaluations = 58 116

MPI task timing breakdown:
Section |  min time  |  avg time  |  max time  |%varavg| %total
---------------------------------------------------------------
Pair    | 0.045436   | 0.045436   | 0.045436   |   0.0 | 95.40
Neigh   | 0          | 0          | 0          |   0.0 |  0.00
Comm    | 0.0010183  | 0.0010183  | 0.0010183  |   0.0 |  2.14
Output  | 0.00087166 | 0.00087166 | 0.00087166 |   0.0 |  1.83
Modify  | 0          | 0          | 0          |   0.0 |  0.00
Other   |            | 0.0003016  |            |       |  0.63

Nlocal:    18 ave 18 max 18 min
Histogram: 1 0 0 0 0 0 0 0 0 0
Nghost:    1737 ave 1737 max 1737 min
Histogram: 1 0 0 0 0 0 0 0 0 0
Neighs:    3690 ave 3690 max 3690 min
Histogram: 1 0 0 0 0 0 0 0 0 0

Total # of neighbors = 3690
Ave neighs/atom = 205
Neighbor list builds = 0
Dangerous builds = 0
pypospack:output_section:begin
tot_energy = -79.3078574405452
num_atoms = 18
a11 = 2.4877
a22 = 4.3089
a33 = 36.556
a12 = 0
a13 = 0
a23 = -0.0004
tot_press = -8144.39998313506
pxx = -12215.3036360889
pyy = -12217.8963134006
pzz = 8.43407082954786e-08
pxy = -5.23298989508638e-09
pxz = -6.39470312294032e-09
pyz = 1.3435348036832e-06
pypospack:output_section:done
pypospack:lammps_sim:done
Total wall time: 0:00:00
