# ['Mg', 'O']

1728 atoms
2 atom types

    0.0000    25.5389 xlo xhi
    0.0000    25.5389 ylo yhi
    0.0000    25.5389 zlo zhi

    0.0000     0.0000     0.0000 xy xz yz

Atoms

1 1     1.0000     2.1282     2.1282     0.0000
2 1     1.0000     2.1282     0.0000     2.1282
3 1     1.0000     0.0000     0.0000     0.0000
4 1     1.0000     0.0000     2.1282     2.1282
5 1     1.0000     2.1282     2.1282     4.2565
6 1     1.0000     2.1282     0.0000     6.3847
7 1     1.0000     0.0000     0.0000     4.2565
8 1     1.0000     0.0000     2.1282     6.3847
9 1     1.0000     2.1282     2.1282     8.5130
10 1     1.0000     2.1282     0.0000    10.6412
11 1     1.0000     0.0000     0.0000     8.5130
12 1     1.0000     0.0000     2.1282    10.6412
13 1     1.0000     2.1282     2.1282    12.7694
14 1     1.0000     2.1282     0.0000    14.8977
15 1     1.0000     0.0000     0.0000    12.7694
16 1     1.0000     0.0000     2.1282    14.8977
17 1     1.0000     2.1282     2.1282    17.0259
18 1     1.0000     2.1282     0.0000    19.1542
19 1     1.0000     0.0000     0.0000    17.0259
20 1     1.0000     0.0000     2.1282    19.1542
21 1     1.0000     2.1282     2.1282    21.2824
22 1     1.0000     2.1282     0.0000    23.4107
23 1     1.0000     0.0000     0.0000    21.2824
24 1     1.0000     0.0000     2.1282    23.4107
25 1     1.0000     2.1282     6.3847     0.0000
26 1     1.0000     2.1282     4.2565     2.1282
27 1     1.0000     0.0000     4.2565     0.0000
28 1     1.0000     0.0000     6.3847     2.1282
29 1     1.0000     2.1282     6.3847     4.2565
30 1     1.0000     2.1282     4.2565     6.3847
31 1     1.0000     0.0000     4.2565     4.2565
32 1     1.0000     0.0000     6.3847     6.3847
33 1     1.0000     2.1282     6.3847     8.5130
34 1     1.0000     2.1282     4.2565    10.6412
35 1     1.0000     0.0000     4.2565     8.5130
36 1     1.0000     0.0000     6.3847    10.6412
37 1     1.0000     2.1282     6.3847    12.7694
38 1     1.0000     2.1282     4.2565    14.8977
39 1     1.0000     0.0000     4.2565    12.7694
40 1     1.0000     0.0000     6.3847    14.8977
41 1     1.0000     2.1282     6.3847    17.0259
42 1     1.0000     2.1282     4.2565    19.1542
43 1     1.0000     0.0000     4.2565    17.0259
44 1     1.0000     0.0000     6.3847    19.1542
45 1     1.0000     2.1282     6.3847    21.2824
46 1     1.0000     2.1282     4.2565    23.4107
47 1     1.0000     0.0000     4.2565    21.2824
48 1     1.0000     0.0000     6.3847    23.4107
49 1     1.0000     2.1282    10.6412     0.0000
50 1     1.0000     2.1282     8.5130     2.1282
51 1     1.0000     0.0000     8.5130     0.0000
52 1     1.0000     0.0000    10.6412     2.1282
53 1     1.0000     2.1282    10.6412     4.2565
54 1     1.0000     2.1282     8.5130     6.3847
55 1     1.0000     0.0000     8.5130     4.2565
56 1     1.0000     0.0000    10.6412     6.3847
57 1     1.0000     2.1282    10.6412     8.5130
58 1     1.0000     2.1282     8.5130    10.6412
59 1     1.0000     0.0000     8.5130     8.5130
60 1     1.0000     0.0000    10.6412    10.6412
61 1     1.0000     2.1282    10.6412    12.7694
62 1     1.0000     2.1282     8.5130    14.8977
63 1     1.0000     0.0000     8.5130    12.7694
64 1     1.0000     0.0000    10.6412    14.8977
65 1     1.0000     2.1282    10.6412    17.0259
66 1     1.0000     2.1282     8.5130    19.1542
67 1     1.0000     0.0000     8.5130    17.0259
68 1     1.0000     0.0000    10.6412    19.1542
69 1     1.0000     2.1282    10.6412    21.2824
70 1     1.0000     2.1282     8.5130    23.4107
71 1     1.0000     0.0000     8.5130    21.2824
72 1     1.0000     0.0000    10.6412    23.4107
73 1     1.0000     2.1282    14.8977     0.0000
74 1     1.0000     2.1282    12.7694     2.1282
75 1     1.0000     0.0000    12.7694     0.0000
76 1     1.0000     0.0000    14.8977     2.1282
77 1     1.0000     2.1282    14.8977     4.2565
78 1     1.0000     2.1282    12.7694     6.3847
79 1     1.0000     0.0000    12.7694     4.2565
80 1     1.0000     0.0000    14.8977     6.3847
81 1     1.0000     2.1282    14.8977     8.5130
82 1     1.0000     2.1282    12.7694    10.6412
83 1     1.0000     0.0000    12.7694     8.5130
84 1     1.0000     0.0000    14.8977    10.6412
85 1     1.0000     2.1282    14.8977    12.7694
86 1     1.0000     2.1282    12.7694    14.8977
87 1     1.0000     0.0000    12.7694    12.7694
88 1     1.0000     0.0000    14.8977    14.8977
89 1     1.0000     2.1282    14.8977    17.0259
90 1     1.0000     2.1282    12.7694    19.1542
91 1     1.0000     0.0000    12.7694    17.0259
92 1     1.0000     0.0000    14.8977    19.1542
93 1     1.0000     2.1282    14.8977    21.2824
94 1     1.0000     2.1282    12.7694    23.4107
95 1     1.0000     0.0000    12.7694    21.2824
96 1     1.0000     0.0000    14.8977    23.4107
97 1     1.0000     2.1282    19.1542     0.0000
98 1     1.0000     2.1282    17.0259     2.1282
99 1     1.0000     0.0000    17.0259     0.0000
100 1     1.0000     0.0000    19.1542     2.1282
101 1     1.0000     2.1282    19.1542     4.2565
102 1     1.0000     2.1282    17.0259     6.3847
103 1     1.0000     0.0000    17.0259     4.2565
104 1     1.0000     0.0000    19.1542     6.3847
105 1     1.0000     2.1282    19.1542     8.5130
106 1     1.0000     2.1282    17.0259    10.6412
107 1     1.0000     0.0000    17.0259     8.5130
108 1     1.0000     0.0000    19.1542    10.6412
109 1     1.0000     2.1282    19.1542    12.7694
110 1     1.0000     2.1282    17.0259    14.8977
111 1     1.0000     0.0000    17.0259    12.7694
112 1     1.0000     0.0000    19.1542    14.8977
113 1     1.0000     2.1282    19.1542    17.0259
114 1     1.0000     2.1282    17.0259    19.1542
115 1     1.0000     0.0000    17.0259    17.0259
116 1     1.0000     0.0000    19.1542    19.1542
117 1     1.0000     2.1282    19.1542    21.2824
118 1     1.0000     2.1282    17.0259    23.4107
119 1     1.0000     0.0000    17.0259    21.2824
120 1     1.0000     0.0000    19.1542    23.4107
121 1     1.0000     2.1282    23.4107     0.0000
122 1     1.0000     2.1282    21.2824     2.1282
123 1     1.0000     0.0000    21.2824     0.0000
124 1     1.0000     0.0000    23.4107     2.1282
125 1     1.0000     2.1282    23.4107     4.2565
126 1     1.0000     2.1282    21.2824     6.3847
127 1     1.0000     0.0000    21.2824     4.2565
128 1     1.0000     0.0000    23.4107     6.3847
129 1     1.0000     2.1282    23.4107     8.5130
130 1     1.0000     2.1282    21.2824    10.6412
131 1     1.0000     0.0000    21.2824     8.5130
132 1     1.0000     0.0000    23.4107    10.6412
133 1     1.0000     2.1282    23.4107    12.7694
134 1     1.0000     2.1282    21.2824    14.8977
135 1     1.0000     0.0000    21.2824    12.7694
136 1     1.0000     0.0000    23.4107    14.8977
137 1     1.0000     2.1282    23.4107    17.0259
138 1     1.0000     2.1282    21.2824    19.1542
139 1     1.0000     0.0000    21.2824    17.0259
140 1     1.0000     0.0000    23.4107    19.1542
141 1     1.0000     2.1282    23.4107    21.2824
142 1     1.0000     2.1282    21.2824    23.4107
143 1     1.0000     0.0000    21.2824    21.2824
144 1     1.0000     0.0000    23.4107    23.4107
145 1     1.0000     6.3847     2.1282     0.0000
146 1     1.0000     6.3847     0.0000     2.1282
147 1     1.0000     4.2565     0.0000     0.0000
148 1     1.0000     4.2565     2.1282     2.1282
149 1     1.0000     6.3847     2.1282     4.2565
150 1     1.0000     6.3847     0.0000     6.3847
151 1     1.0000     4.2565     0.0000     4.2565
152 1     1.0000     4.2565     2.1282     6.3847
153 1     1.0000     6.3847     2.1282     8.5130
154 1     1.0000     6.3847     0.0000    10.6412
155 1     1.0000     4.2565     0.0000     8.5130
156 1     1.0000     4.2565     2.1282    10.6412
157 1     1.0000     6.3847     2.1282    12.7694
158 1     1.0000     6.3847     0.0000    14.8977
159 1     1.0000     4.2565     0.0000    12.7694
160 1     1.0000     4.2565     2.1282    14.8977
161 1     1.0000     6.3847     2.1282    17.0259
162 1     1.0000     6.3847     0.0000    19.1542
163 1     1.0000     4.2565     0.0000    17.0259
164 1     1.0000     4.2565     2.1282    19.1542
165 1     1.0000     6.3847     2.1282    21.2824
166 1     1.0000     6.3847     0.0000    23.4107
167 1     1.0000     4.2565     0.0000    21.2824
168 1     1.0000     4.2565     2.1282    23.4107
169 1     1.0000     6.3847     6.3847     0.0000
170 1     1.0000     6.3847     4.2565     2.1282
171 1     1.0000     4.2565     4.2565     0.0000
172 1     1.0000     4.2565     6.3847     2.1282
173 1     1.0000     6.3847     6.3847     4.2565
174 1     1.0000     6.3847     4.2565     6.3847
175 1     1.0000     4.2565     4.2565     4.2565
176 1     1.0000     4.2565     6.3847     6.3847
177 1     1.0000     6.3847     6.3847     8.5130
178 1     1.0000     6.3847     4.2565    10.6412
179 1     1.0000     4.2565     4.2565     8.5130
180 1     1.0000     4.2565     6.3847    10.6412
181 1     1.0000     6.3847     6.3847    12.7694
182 1     1.0000     6.3847     4.2565    14.8977
183 1     1.0000     4.2565     4.2565    12.7694
184 1     1.0000     4.2565     6.3847    14.8977
185 1     1.0000     6.3847     6.3847    17.0259
186 1     1.0000     6.3847     4.2565    19.1542
187 1     1.0000     4.2565     4.2565    17.0259
188 1     1.0000     4.2565     6.3847    19.1542
189 1     1.0000     6.3847     6.3847    21.2824
190 1     1.0000     6.3847     4.2565    23.4107
191 1     1.0000     4.2565     4.2565    21.2824
192 1     1.0000     4.2565     6.3847    23.4107
193 1     1.0000     6.3847    10.6412     0.0000
194 1     1.0000     6.3847     8.5130     2.1282
195 1     1.0000     4.2565     8.5130     0.0000
196 1     1.0000     4.2565    10.6412     2.1282
197 1     1.0000     6.3847    10.6412     4.2565
198 1     1.0000     6.3847     8.5130     6.3847
199 1     1.0000     4.2565     8.5130     4.2565
200 1     1.0000     4.2565    10.6412     6.3847
201 1     1.0000     6.3847    10.6412     8.5130
202 1     1.0000     6.3847     8.5130    10.6412
203 1     1.0000     4.2565     8.5130     8.5130
204 1     1.0000     4.2565    10.6412    10.6412
205 1     1.0000     6.3847    10.6412    12.7694
206 1     1.0000     6.3847     8.5130    14.8977
207 1     1.0000     4.2565     8.5130    12.7694
208 1     1.0000     4.2565    10.6412    14.8977
209 1     1.0000     6.3847    10.6412    17.0259
210 1     1.0000     6.3847     8.5130    19.1542
211 1     1.0000     4.2565     8.5130    17.0259
212 1     1.0000     4.2565    10.6412    19.1542
213 1     1.0000     6.3847    10.6412    21.2824
214 1     1.0000     6.3847     8.5130    23.4107
215 1     1.0000     4.2565     8.5130    21.2824
216 1     1.0000     4.2565    10.6412    23.4107
217 1     1.0000     6.3847    14.8977     0.0000
218 1     1.0000     6.3847    12.7694     2.1282
219 1     1.0000     4.2565    12.7694     0.0000
220 1     1.0000     4.2565    14.8977     2.1282
221 1     1.0000     6.3847    14.8977     4.2565
222 1     1.0000     6.3847    12.7694     6.3847
223 1     1.0000     4.2565    12.7694     4.2565
224 1     1.0000     4.2565    14.8977     6.3847
225 1     1.0000     6.3847    14.8977     8.5130
226 1     1.0000     6.3847    12.7694    10.6412
227 1     1.0000     4.2565    12.7694     8.5130
228 1     1.0000     4.2565    14.8977    10.6412
229 1     1.0000     6.3847    14.8977    12.7694
230 1     1.0000     6.3847    12.7694    14.8977
231 1     1.0000     4.2565    12.7694    12.7694
232 1     1.0000     4.2565    14.8977    14.8977
233 1     1.0000     6.3847    14.8977    17.0259
234 1     1.0000     6.3847    12.7694    19.1542
235 1     1.0000     4.2565    12.7694    17.0259
236 1     1.0000     4.2565    14.8977    19.1542
237 1     1.0000     6.3847    14.8977    21.2824
238 1     1.0000     6.3847    12.7694    23.4107
239 1     1.0000     4.2565    12.7694    21.2824
240 1     1.0000     4.2565    14.8977    23.4107
241 1     1.0000     6.3847    19.1542     0.0000
242 1     1.0000     6.3847    17.0259     2.1282
243 1     1.0000     4.2565    17.0259     0.0000
244 1     1.0000     4.2565    19.1542     2.1282
245 1     1.0000     6.3847    19.1542     4.2565
246 1     1.0000     6.3847    17.0259     6.3847
247 1     1.0000     4.2565    17.0259     4.2565
248 1     1.0000     4.2565    19.1542     6.3847
249 1     1.0000     6.3847    19.1542     8.5130
250 1     1.0000     6.3847    17.0259    10.6412
251 1     1.0000     4.2565    17.0259     8.5130
252 1     1.0000     4.2565    19.1542    10.6412
253 1     1.0000     6.3847    19.1542    12.7694
254 1     1.0000     6.3847    17.0259    14.8977
255 1     1.0000     4.2565    17.0259    12.7694
256 1     1.0000     4.2565    19.1542    14.8977
257 1     1.0000     6.3847    19.1542    17.0259
258 1     1.0000     6.3847    17.0259    19.1542
259 1     1.0000     4.2565    17.0259    17.0259
260 1     1.0000     4.2565    19.1542    19.1542
261 1     1.0000     6.3847    19.1542    21.2824
262 1     1.0000     6.3847    17.0259    23.4107
263 1     1.0000     4.2565    17.0259    21.2824
264 1     1.0000     4.2565    19.1542    23.4107
265 1     1.0000     6.3847    23.4107     0.0000
266 1     1.0000     6.3847    21.2824     2.1282
267 1     1.0000     4.2565    21.2824     0.0000
268 1     1.0000     4.2565    23.4107     2.1282
269 1     1.0000     6.3847    23.4107     4.2565
270 1     1.0000     6.3847    21.2824     6.3847
271 1     1.0000     4.2565    21.2824     4.2565
272 1     1.0000     4.2565    23.4107     6.3847
273 1     1.0000     6.3847    23.4107     8.5130
274 1     1.0000     6.3847    21.2824    10.6412
275 1     1.0000     4.2565    21.2824     8.5130
276 1     1.0000     4.2565    23.4107    10.6412
277 1     1.0000     6.3847    23.4107    12.7694
278 1     1.0000     6.3847    21.2824    14.8977
279 1     1.0000     4.2565    21.2824    12.7694
280 1     1.0000     4.2565    23.4107    14.8977
281 1     1.0000     6.3847    23.4107    17.0259
282 1     1.0000     6.3847    21.2824    19.1542
283 1     1.0000     4.2565    21.2824    17.0259
284 1     1.0000     4.2565    23.4107    19.1542
285 1     1.0000     6.3847    23.4107    21.2824
286 1     1.0000     6.3847    21.2824    23.4107
287 1     1.0000     4.2565    21.2824    21.2824
288 1     1.0000     4.2565    23.4107    23.4107
289 1     1.0000    10.6412     2.1282     0.0000
290 1     1.0000    10.6412     0.0000     2.1282
291 1     1.0000     8.5130     0.0000     0.0000
292 1     1.0000     8.5130     2.1282     2.1282
293 1     1.0000    10.6412     2.1282     4.2565
294 1     1.0000    10.6412     0.0000     6.3847
295 1     1.0000     8.5130     0.0000     4.2565
296 1     1.0000     8.5130     2.1282     6.3847
297 1     1.0000    10.6412     2.1282     8.5130
298 1     1.0000    10.6412     0.0000    10.6412
299 1     1.0000     8.5130     0.0000     8.5130
300 1     1.0000     8.5130     2.1282    10.6412
301 1     1.0000    10.6412     2.1282    12.7694
302 1     1.0000    10.6412     0.0000    14.8977
303 1     1.0000     8.5130     0.0000    12.7694
304 1     1.0000     8.5130     2.1282    14.8977
305 1     1.0000    10.6412     2.1282    17.0259
306 1     1.0000    10.6412     0.0000    19.1542
307 1     1.0000     8.5130     0.0000    17.0259
308 1     1.0000     8.5130     2.1282    19.1542
309 1     1.0000    10.6412     2.1282    21.2824
310 1     1.0000    10.6412     0.0000    23.4107
311 1     1.0000     8.5130     0.0000    21.2824
312 1     1.0000     8.5130     2.1282    23.4107
313 1     1.0000    10.6412     6.3847     0.0000
314 1     1.0000    10.6412     4.2565     2.1282
315 1     1.0000     8.5130     4.2565     0.0000
316 1     1.0000     8.5130     6.3847     2.1282
317 1     1.0000    10.6412     6.3847     4.2565
318 1     1.0000    10.6412     4.2565     6.3847
319 1     1.0000     8.5130     4.2565     4.2565
320 1     1.0000     8.5130     6.3847     6.3847
321 1     1.0000    10.6412     6.3847     8.5130
322 1     1.0000    10.6412     4.2565    10.6412
323 1     1.0000     8.5130     4.2565     8.5130
324 1     1.0000     8.5130     6.3847    10.6412
325 1     1.0000    10.6412     6.3847    12.7694
326 1     1.0000    10.6412     4.2565    14.8977
327 1     1.0000     8.5130     4.2565    12.7694
328 1     1.0000     8.5130     6.3847    14.8977
329 1     1.0000    10.6412     6.3847    17.0259
330 1     1.0000    10.6412     4.2565    19.1542
331 1     1.0000     8.5130     4.2565    17.0259
332 1     1.0000     8.5130     6.3847    19.1542
333 1     1.0000    10.6412     6.3847    21.2824
334 1     1.0000    10.6412     4.2565    23.4107
335 1     1.0000     8.5130     4.2565    21.2824
336 1     1.0000     8.5130     6.3847    23.4107
337 1     1.0000    10.6412    10.6412     0.0000
338 1     1.0000    10.6412     8.5130     2.1282
339 1     1.0000     8.5130     8.5130     0.0000
340 1     1.0000     8.5130    10.6412     2.1282
341 1     1.0000    10.6412    10.6412     4.2565
342 1     1.0000    10.6412     8.5130     6.3847
343 1     1.0000     8.5130     8.5130     4.2565
344 1     1.0000     8.5130    10.6412     6.3847
345 1     1.0000    10.6412    10.6412     8.5130
346 1     1.0000    10.6412     8.5130    10.6412
347 1     1.0000     8.5130     8.5130     8.5130
348 1     1.0000     8.5130    10.6412    10.6412
349 1     1.0000    10.6412    10.6412    12.7694
350 1     1.0000    10.6412     8.5130    14.8977
351 1     1.0000     8.5130     8.5130    12.7694
352 1     1.0000     8.5130    10.6412    14.8977
353 1     1.0000    10.6412    10.6412    17.0259
354 1     1.0000    10.6412     8.5130    19.1542
355 1     1.0000     8.5130     8.5130    17.0259
356 1     1.0000     8.5130    10.6412    19.1542
357 1     1.0000    10.6412    10.6412    21.2824
358 1     1.0000    10.6412     8.5130    23.4107
359 1     1.0000     8.5130     8.5130    21.2824
360 1     1.0000     8.5130    10.6412    23.4107
361 1     1.0000    10.6412    14.8977     0.0000
362 1     1.0000    10.6412    12.7694     2.1282
363 1     1.0000     8.5130    12.7694     0.0000
364 1     1.0000     8.5130    14.8977     2.1282
365 1     1.0000    10.6412    14.8977     4.2565
366 1     1.0000    10.6412    12.7694     6.3847
367 1     1.0000     8.5130    12.7694     4.2565
368 1     1.0000     8.5130    14.8977     6.3847
369 1     1.0000    10.6412    14.8977     8.5130
370 1     1.0000    10.6412    12.7694    10.6412
371 1     1.0000     8.5130    12.7694     8.5130
372 1     1.0000     8.5130    14.8977    10.6412
373 1     1.0000    10.6412    14.8977    12.7694
374 1     1.0000    10.6412    12.7694    14.8977
375 1     1.0000     8.5130    12.7694    12.7694
376 1     1.0000     8.5130    14.8977    14.8977
377 1     1.0000    10.6412    14.8977    17.0259
378 1     1.0000    10.6412    12.7694    19.1542
379 1     1.0000     8.5130    12.7694    17.0259
380 1     1.0000     8.5130    14.8977    19.1542
381 1     1.0000    10.6412    14.8977    21.2824
382 1     1.0000    10.6412    12.7694    23.4107
383 1     1.0000     8.5130    12.7694    21.2824
384 1     1.0000     8.5130    14.8977    23.4107
385 1     1.0000    10.6412    19.1542     0.0000
386 1     1.0000    10.6412    17.0259     2.1282
387 1     1.0000     8.5130    17.0259     0.0000
388 1     1.0000     8.5130    19.1542     2.1282
389 1     1.0000    10.6412    19.1542     4.2565
390 1     1.0000    10.6412    17.0259     6.3847
391 1     1.0000     8.5130    17.0259     4.2565
392 1     1.0000     8.5130    19.1542     6.3847
393 1     1.0000    10.6412    19.1542     8.5130
394 1     1.0000    10.6412    17.0259    10.6412
395 1     1.0000     8.5130    17.0259     8.5130
396 1     1.0000     8.5130    19.1542    10.6412
397 1     1.0000    10.6412    19.1542    12.7694
398 1     1.0000    10.6412    17.0259    14.8977
399 1     1.0000     8.5130    17.0259    12.7694
400 1     1.0000     8.5130    19.1542    14.8977
401 1     1.0000    10.6412    19.1542    17.0259
402 1     1.0000    10.6412    17.0259    19.1542
403 1     1.0000     8.5130    17.0259    17.0259
404 1     1.0000     8.5130    19.1542    19.1542
405 1     1.0000    10.6412    19.1542    21.2824
406 1     1.0000    10.6412    17.0259    23.4107
407 1     1.0000     8.5130    17.0259    21.2824
408 1     1.0000     8.5130    19.1542    23.4107
409 1     1.0000    10.6412    23.4107     0.0000
410 1     1.0000    10.6412    21.2824     2.1282
411 1     1.0000     8.5130    21.2824     0.0000
412 1     1.0000     8.5130    23.4107     2.1282
413 1     1.0000    10.6412    23.4107     4.2565
414 1     1.0000    10.6412    21.2824     6.3847
415 1     1.0000     8.5130    21.2824     4.2565
416 1     1.0000     8.5130    23.4107     6.3847
417 1     1.0000    10.6412    23.4107     8.5130
418 1     1.0000    10.6412    21.2824    10.6412
419 1     1.0000     8.5130    21.2824     8.5130
420 1     1.0000     8.5130    23.4107    10.6412
421 1     1.0000    10.6412    23.4107    12.7694
422 1     1.0000    10.6412    21.2824    14.8977
423 1     1.0000     8.5130    21.2824    12.7694
424 1     1.0000     8.5130    23.4107    14.8977
425 1     1.0000    10.6412    23.4107    17.0259
426 1     1.0000    10.6412    21.2824    19.1542
427 1     1.0000     8.5130    21.2824    17.0259
428 1     1.0000     8.5130    23.4107    19.1542
429 1     1.0000    10.6412    23.4107    21.2824
430 1     1.0000    10.6412    21.2824    23.4107
431 1     1.0000     8.5130    21.2824    21.2824
432 1     1.0000     8.5130    23.4107    23.4107
433 1     1.0000    14.8977     2.1282     0.0000
434 1     1.0000    14.8977     0.0000     2.1282
435 1     1.0000    12.7694     0.0000     0.0000
436 1     1.0000    12.7694     2.1282     2.1282
437 1     1.0000    14.8977     2.1282     4.2565
438 1     1.0000    14.8977     0.0000     6.3847
439 1     1.0000    12.7694     0.0000     4.2565
440 1     1.0000    12.7694     2.1282     6.3847
441 1     1.0000    14.8977     2.1282     8.5130
442 1     1.0000    14.8977     0.0000    10.6412
443 1     1.0000    12.7694     0.0000     8.5130
444 1     1.0000    12.7694     2.1282    10.6412
445 1     1.0000    14.8977     2.1282    12.7694
446 1     1.0000    14.8977     0.0000    14.8977
447 1     1.0000    12.7694     0.0000    12.7694
448 1     1.0000    12.7694     2.1282    14.8977
449 1     1.0000    14.8977     2.1282    17.0259
450 1     1.0000    14.8977     0.0000    19.1542
451 1     1.0000    12.7694     0.0000    17.0259
452 1     1.0000    12.7694     2.1282    19.1542
453 1     1.0000    14.8977     2.1282    21.2824
454 1     1.0000    14.8977     0.0000    23.4107
455 1     1.0000    12.7694     0.0000    21.2824
456 1     1.0000    12.7694     2.1282    23.4107
457 1     1.0000    14.8977     6.3847     0.0000
458 1     1.0000    14.8977     4.2565     2.1282
459 1     1.0000    12.7694     4.2565     0.0000
460 1     1.0000    12.7694     6.3847     2.1282
461 1     1.0000    14.8977     6.3847     4.2565
462 1     1.0000    14.8977     4.2565     6.3847
463 1     1.0000    12.7694     4.2565     4.2565
464 1     1.0000    12.7694     6.3847     6.3847
465 1     1.0000    14.8977     6.3847     8.5130
466 1     1.0000    14.8977     4.2565    10.6412
467 1     1.0000    12.7694     4.2565     8.5130
468 1     1.0000    12.7694     6.3847    10.6412
469 1     1.0000    14.8977     6.3847    12.7694
470 1     1.0000    14.8977     4.2565    14.8977
471 1     1.0000    12.7694     4.2565    12.7694
472 1     1.0000    12.7694     6.3847    14.8977
473 1     1.0000    14.8977     6.3847    17.0259
474 1     1.0000    14.8977     4.2565    19.1542
475 1     1.0000    12.7694     4.2565    17.0259
476 1     1.0000    12.7694     6.3847    19.1542
477 1     1.0000    14.8977     6.3847    21.2824
478 1     1.0000    14.8977     4.2565    23.4107
479 1     1.0000    12.7694     4.2565    21.2824
480 1     1.0000    12.7694     6.3847    23.4107
481 1     1.0000    14.8977    10.6412     0.0000
482 1     1.0000    14.8977     8.5130     2.1282
483 1     1.0000    12.7694     8.5130     0.0000
484 1     1.0000    12.7694    10.6412     2.1282
485 1     1.0000    14.8977    10.6412     4.2565
486 1     1.0000    14.8977     8.5130     6.3847
487 1     1.0000    12.7694     8.5130     4.2565
488 1     1.0000    12.7694    10.6412     6.3847
489 1     1.0000    14.8977    10.6412     8.5130
490 1     1.0000    14.8977     8.5130    10.6412
491 1     1.0000    12.7694     8.5130     8.5130
492 1     1.0000    12.7694    10.6412    10.6412
493 1     1.0000    14.8977    10.6412    12.7694
494 1     1.0000    14.8977     8.5130    14.8977
495 1     1.0000    12.7694     8.5130    12.7694
496 1     1.0000    12.7694    10.6412    14.8977
497 1     1.0000    14.8977    10.6412    17.0259
498 1     1.0000    14.8977     8.5130    19.1542
499 1     1.0000    12.7694     8.5130    17.0259
500 1     1.0000    12.7694    10.6412    19.1542
501 1     1.0000    14.8977    10.6412    21.2824
502 1     1.0000    14.8977     8.5130    23.4107
503 1     1.0000    12.7694     8.5130    21.2824
504 1     1.0000    12.7694    10.6412    23.4107
505 1     1.0000    14.8977    14.8977     0.0000
506 1     1.0000    14.8977    12.7694     2.1282
507 1     1.0000    12.7694    12.7694     0.0000
508 1     1.0000    12.7694    14.8977     2.1282
509 1     1.0000    14.8977    14.8977     4.2565
510 1     1.0000    14.8977    12.7694     6.3847
511 1     1.0000    12.7694    12.7694     4.2565
512 1     1.0000    12.7694    14.8977     6.3847
513 1     1.0000    14.8977    14.8977     8.5130
514 1     1.0000    14.8977    12.7694    10.6412
515 1     1.0000    12.7694    12.7694     8.5130
516 1     1.0000    12.7694    14.8977    10.6412
517 1     1.0000    14.8977    14.8977    12.7694
518 1     1.0000    14.8977    12.7694    14.8977
519 1     1.0000    12.7694    12.7694    12.7694
520 1     1.0000    12.7694    14.8977    14.8977
521 1     1.0000    14.8977    14.8977    17.0259
522 1     1.0000    14.8977    12.7694    19.1542
523 1     1.0000    12.7694    12.7694    17.0259
524 1     1.0000    12.7694    14.8977    19.1542
525 1     1.0000    14.8977    14.8977    21.2824
526 1     1.0000    14.8977    12.7694    23.4107
527 1     1.0000    12.7694    12.7694    21.2824
528 1     1.0000    12.7694    14.8977    23.4107
529 1     1.0000    14.8977    19.1542     0.0000
530 1     1.0000    14.8977    17.0259     2.1282
531 1     1.0000    12.7694    17.0259     0.0000
532 1     1.0000    12.7694    19.1542     2.1282
533 1     1.0000    14.8977    19.1542     4.2565
534 1     1.0000    14.8977    17.0259     6.3847
535 1     1.0000    12.7694    17.0259     4.2565
536 1     1.0000    12.7694    19.1542     6.3847
537 1     1.0000    14.8977    19.1542     8.5130
538 1     1.0000    14.8977    17.0259    10.6412
539 1     1.0000    12.7694    17.0259     8.5130
540 1     1.0000    12.7694    19.1542    10.6412
541 1     1.0000    14.8977    19.1542    12.7694
542 1     1.0000    14.8977    17.0259    14.8977
543 1     1.0000    12.7694    17.0259    12.7694
544 1     1.0000    12.7694    19.1542    14.8977
545 1     1.0000    14.8977    19.1542    17.0259
546 1     1.0000    14.8977    17.0259    19.1542
547 1     1.0000    12.7694    17.0259    17.0259
548 1     1.0000    12.7694    19.1542    19.1542
549 1     1.0000    14.8977    19.1542    21.2824
550 1     1.0000    14.8977    17.0259    23.4107
551 1     1.0000    12.7694    17.0259    21.2824
552 1     1.0000    12.7694    19.1542    23.4107
553 1     1.0000    14.8977    23.4107     0.0000
554 1     1.0000    14.8977    21.2824     2.1282
555 1     1.0000    12.7694    21.2824     0.0000
556 1     1.0000    12.7694    23.4107     2.1282
557 1     1.0000    14.8977    23.4107     4.2565
558 1     1.0000    14.8977    21.2824     6.3847
559 1     1.0000    12.7694    21.2824     4.2565
560 1     1.0000    12.7694    23.4107     6.3847
561 1     1.0000    14.8977    23.4107     8.5130
562 1     1.0000    14.8977    21.2824    10.6412
563 1     1.0000    12.7694    21.2824     8.5130
564 1     1.0000    12.7694    23.4107    10.6412
565 1     1.0000    14.8977    23.4107    12.7694
566 1     1.0000    14.8977    21.2824    14.8977
567 1     1.0000    12.7694    21.2824    12.7694
568 1     1.0000    12.7694    23.4107    14.8977
569 1     1.0000    14.8977    23.4107    17.0259
570 1     1.0000    14.8977    21.2824    19.1542
571 1     1.0000    12.7694    21.2824    17.0259
572 1     1.0000    12.7694    23.4107    19.1542
573 1     1.0000    14.8977    23.4107    21.2824
574 1     1.0000    14.8977    21.2824    23.4107
575 1     1.0000    12.7694    21.2824    21.2824
576 1     1.0000    12.7694    23.4107    23.4107
577 1     1.0000    19.1542     2.1282     0.0000
578 1     1.0000    19.1542     0.0000     2.1282
579 1     1.0000    17.0259     0.0000     0.0000
580 1     1.0000    17.0259     2.1282     2.1282
581 1     1.0000    19.1542     2.1282     4.2565
582 1     1.0000    19.1542     0.0000     6.3847
583 1     1.0000    17.0259     0.0000     4.2565
584 1     1.0000    17.0259     2.1282     6.3847
585 1     1.0000    19.1542     2.1282     8.5130
586 1     1.0000    19.1542     0.0000    10.6412
587 1     1.0000    17.0259     0.0000     8.5130
588 1     1.0000    17.0259     2.1282    10.6412
589 1     1.0000    19.1542     2.1282    12.7694
590 1     1.0000    19.1542     0.0000    14.8977
591 1     1.0000    17.0259     0.0000    12.7694
592 1     1.0000    17.0259     2.1282    14.8977
593 1     1.0000    19.1542     2.1282    17.0259
594 1     1.0000    19.1542     0.0000    19.1542
595 1     1.0000    17.0259     0.0000    17.0259
596 1     1.0000    17.0259     2.1282    19.1542
597 1     1.0000    19.1542     2.1282    21.2824
598 1     1.0000    19.1542     0.0000    23.4107