# ['Ni']

107 atoms
1 atom types

    0.0000    10.1703 xlo xhi
    0.0000    10.1703 ylo yhi
    0.0000    10.1703 zlo zhi

    0.0000    -0.0000    -0.0000 xy xz yz

Atoms

1 1     1.6950     1.6950     0.0000
2 1     1.6950     0.0000     1.6950
3 1     0.0000     1.6950     1.6950
4 1     0.0000     0.0000     3.3901
5 1     1.6950     1.6950     3.3901
6 1     1.6950     0.0000     5.0851
7 1     0.0000     1.6950     5.0851
8 1     0.0000     0.0000     6.7802
9 1     1.6950     1.6950     6.7802
10 1     1.6950     0.0000     8.4752
11 1     0.0000     1.6950     8.4752
12 1     0.0000     3.3901     0.0000
13 1     1.6950     5.0851     0.0000
14 1     1.6950     3.3901     1.6950
15 1     0.0000     5.0851     1.6950
16 1     0.0000     3.3901     3.3901
17 1     1.6950     5.0851     3.3901
18 1     1.6950     3.3901     5.0851
19 1     0.0000     5.0851     5.0851
20 1     0.0000     3.3901     6.7802
21 1     1.6950     5.0851     6.7802
22 1     1.6950     3.3901     8.4752
23 1     0.0000     5.0851     8.4752
24 1     0.0000     6.7802     0.0000
25 1     1.6950     8.4752     0.0000
26 1     1.6950     6.7802     1.6950
27 1     0.0000     8.4752     1.6950
28 1     0.0000     6.7802     3.3901
29 1     1.6950     8.4752     3.3901
30 1     1.6950     6.7802     5.0851
31 1     0.0000     8.4752     5.0851
32 1     0.0000     6.7802     6.7802
33 1     1.6950     8.4752     6.7802
34 1     1.6950     6.7802     8.4752
35 1     0.0000     8.4752     8.4752
36 1     3.3901     0.0000     0.0000
37 1     5.0851     1.6950     0.0000
38 1     5.0851     0.0000     1.6950
39 1     3.3901     1.6950     1.6950
40 1     3.3901     0.0000     3.3901
41 1     5.0851     1.6950     3.3901
42 1     5.0851     0.0000     5.0851
43 1     3.3901     1.6950     5.0851
44 1     3.3901     0.0000     6.7802
45 1     5.0851     1.6950     6.7802
46 1     5.0851     0.0000     8.4752
47 1     3.3901     1.6950     8.4752
48 1     3.3901     3.3901     0.0000
49 1     5.0851     5.0851     0.0000
50 1     5.0851     3.3901     1.6950
51 1     3.3901     5.0851     1.6950
52 1     3.3901     3.3901     3.3901
53 1     5.0851     5.0851     3.3901
54 1     5.0851     3.3901     5.0851
55 1     3.3901     5.0851     5.0851
56 1     3.3901     3.3901     6.7802
57 1     5.0851     5.0851     6.7802
58 1     5.0851     3.3901     8.4752
59 1     3.3901     5.0851     8.4752
60 1     3.3901     6.7802     0.0000
61 1     5.0851     8.4752     0.0000
62 1     5.0851     6.7802     1.6950
63 1     3.3901     8.4752     1.6950
64 1     3.3901     6.7802     3.3901
65 1     5.0851     8.4752     3.3901
66 1     5.0851     6.7802     5.0851
67 1     3.3901     8.4752     5.0851
68 1     3.3901     6.7802     6.7802
69 1     5.0851     8.4752     6.7802
70 1     5.0851     6.7802     8.4752
71 1     3.3901     8.4752     8.4752
72 1     6.7802     0.0000     0.0000
73 1     8.4752     1.6950     0.0000
74 1     8.4752     0.0000     1.6950
75 1     6.7802     1.6950     1.6950
76 1     6.7802     0.0000     3.3901
77 1     8.4752     1.6950     3.3901
78 1     8.4752     0.0000     5.0851
79 1     6.7802     1.6950     5.0851
80 1     6.7802     0.0000     6.7802
81 1     8.4752     1.6950     6.7802
82 1     8.4752     0.0000     8.4752
83 1     6.7802     1.6950     8.4752
84 1     6.7802     3.3901     0.0000
85 1     8.4752     5.0851     0.0000
86 1     8.4752     3.3901     1.6950
87 1     6.7802     5.0851     1.6950
88 1     6.7802     3.3901     3.3901
89 1     8.4752     5.0851     3.3901
90 1     8.4752     3.3901     5.0851
91 1     6.7802     5.0851     5.0851
92 1     6.7802     3.3901     6.7802
93 1     8.4752     5.0851     6.7802
94 1     8.4752     3.3901     8.4752
95 1     6.7802     5.0851     8.4752
96 1     6.7802     6.7802     0.0000
97 1     8.4752     8.4752     0.0000
98 1     8.4752     6.7802     1.6950
99 1     6.7802     8.4752     1.6950
100 1     6.7802     6.7802     3.3901
101 1     8.4752     8.4752     3.3901
102 1     8.4752     6.7802     5.0851
103 1     6.7802     8.4752     5.0851
104 1     6.7802     6.7802     6.7802
105 1     8.4752     8.4752     6.7802
106 1     8.4752     6.7802     8.4752
107 1     6.7802     8.4752     8.4752
