# ['Ni']

18 atoms
1 atom types

    0.0000     2.2760 xlo xhi
    0.0000     3.9422 ylo yhi
    0.0000    33.4451 zlo zhi

    0.0000     0.0000    -0.0004 xy xz yz

Atoms

1 1     0.0000     0.0000     0.0000
2 1     1.1380     0.6570     1.8581
3 1     0.0000     1.3141     3.7161
4 1     1.1380     1.9711     0.0000
5 1     0.0000     2.6281     1.8581
6 1     1.1380     3.2852     3.7161
7 1     0.0000     0.0000     5.5742
8 1     1.1380     0.6570     7.4322
9 1     0.0000     1.3141     9.2903
10 1     1.1380     1.9711     5.5742
11 1     0.0000     2.6281     7.4322
12 1     1.1380     3.2852     9.2903
13 1     0.0000     0.0000    11.1484
14 1     1.1380     0.6570    13.0064
15 1     0.0000     1.3141    14.8645
16 1     1.1380     1.9711    11.1484
17 1     0.0000     2.6281    13.0064
18 1     1.1380     3.2852    14.8645
