 vasp.5.4.1 24Jun15 (build Jun 05 2017 10:38:15) complex                        
  
 executed on           IFC91_ompi date 2017.10.17  23:07:03
 running on   16 total cores
 distrk:  each k-point on   16 cores,    1 groups
 distr:  one band on NCORES_PER_BAND=   1 cores,   16 groups


--------------------------------------------------------------------------------------------------------


 INCAR:
 POTCAR:    PAW_PBE O_h 06Feb2004                 
 POTCAR:    PAW_PBE Mg 13Apr2007                  

 ----------------------------------------------------------------------------- 
|                                                                             |
|           W    W    AA    RRRRR   N    N  II  N    N   GGGG   !!!           |
|           W    W   A  A   R    R  NN   N  II  NN   N  G    G  !!!           |
|           W    W  A    A  R    R  N N  N  II  N N  N  G       !!!           |
|           W WW W  AAAAAA  RRRRR   N  N N  II  N  N N  G  GGG   !            |
|           WW  WW  A    A  R   R   N   NN  II  N   NN  G    G                |
|           W    W  A    A  R    R  N    N  II  N    N   GGGG   !!!           |
|                                                                             |
|      For optimal performance we recommend to set                            |
|        NCORE= 4 - approx SQRT( number of cores)                             |
|      NCORE specifies how many cores store one orbital (NPAR=cpu/NCORE).     |
|      This setting can  greatly improve the performance of VASP for DFT.     |
|      The default, NPAR=number of cores might be grossly inefficient         |
|      on modern multi-core architectures or massively parallel machines.     |
|      Do your own testing !!!!                                               |
|      Unfortunately you need to use the default for GW and RPA calculations. |
|      (for HF NCORE is supported but not extensively tested yet)             |
|                                                                             |
 ----------------------------------------------------------------------------- 

 POTCAR:    PAW_PBE O_h 06Feb2004                 
   VRHFIN =O: s2p4                                                              
   LEXCH  = PE                                                                  
   EATOM  =   432.3788 eV,   31.7789 Ry                                         
                                                                                
   TITEL  = PAW_PBE O_h 06Feb2004                                               
   LULTRA =        F    use ultrasoft PP ?                                      
   IUNSCR =        1    unscreen: 0-lin 1-nonlin 2-no                           
   RPACOR =     .800    partial core radius                                     
   POMASS =   16.000; ZVAL   =    6.000    mass and valenz                      
   RCORE  =    1.100    outmost cutoff radius                                   
   RWIGS  =    1.400; RWIGS  =     .741    wigner-seitz radius (au A)           
   ENMAX  =  700.000; ENMIN  =  500.000 eV                                      
   ICORE  =        2    local potential                                         
   LCOR   =        T    correct aug charges                                     
   LPAW   =        T    paw PP                                                  
   EAUG   =  888.804                                                            
   DEXC   =     .000                                                            
   RMAX   =    1.666    core radius for proj-oper                               
   RAUG   =    1.300    factor for augmentation sphere                          
   RDEP   =    1.125    radius for radial grids                                 
   QCUT   =   -7.501; QGAM   =   15.002    optimization parameters              
                                                                                
   Description                                                                  
     l     E      TYP  RCUT    TYP  RCUT                                        
     0   .000     23  1.100                                                     
     0   .000     23  1.100                                                     
     1   .000     23  1.100                                                     
     1   .000     23  1.100                                                     
     2   .000      7  1.100                                                     
  local pseudopotential read in
  partial core-charges read in
  atomic valenz-charges read in
  non local Contribution for L=           0  read in
    real space projection operators read in
  non local Contribution for L=           0  read in
    real space projection operators read in
  non local Contribution for L=           1  read in
    real space projection operators read in
  non local Contribution for L=           1  read in
    real space projection operators read in
    PAW grid and wavefunctions read in
 
   number of l-projection  operators is LMAX  =           4
   number of lm-projection operators is LMMAX =           8
 
 POTCAR:    PAW_PBE Mg 13Apr2007                  
   VRHFIN =Mg: s2p0                                                             
   LEXCH  = PE                                                                  
   EATOM  =    23.0369 eV,    1.6932 Ry                                         
                                                                                
   TITEL  = PAW_PBE Mg 13Apr2007                                                
   LULTRA =        F    use ultrasoft PP ?                                      
   IUNSCR =        1    unscreen: 0-lin 1-nonlin 2-no                           
   RPACOR =    1.500    partial core radius                                     
   POMASS =   24.305; ZVAL   =    2.000    mass and valenz                      
   RCORE  =    2.000    outmost cutoff radius                                   
   RWIGS  =    2.880; RWIGS  =    1.524    wigner-seitz radius (au A)           
   ENMAX  =  126.143; ENMIN  =   94.607 eV                                      
   RCLOC  =    1.506    cutoff for local pot                                    
   LCOR   =        T    correct aug charges                                     
   LPAW   =        T    paw PP                                                  
   EAUG   =  454.734                                                            
   DEXC   =     .000                                                            
   RMAX   =    4.105    core radius for proj-oper                               
   RAUG   =    1.300    factor for augmentation sphere                          
   RDEP   =    2.025    radius for radial grids                                 
   QCUT   =   -3.045; QGAM   =    6.090    optimization parameters              
                                                                                
   Description                                                                  
     l     E      TYP  RCUT    TYP  RCUT                                        
     0   .000     23  2.000                                                     
     0  2.000     23  2.000                                                     
     1   .100     23  2.000                                                     
     1  2.000     23  2.000                                                     
     2   .000     23  2.000                                                     
  local pseudopotential read in
  partial core-charges read in
  atomic valenz-charges read in
  non local Contribution for L=           0  read in
    real space projection operators read in
  non local Contribution for L=           0  read in
    real space projection operators read in
  non local Contribution for L=           1  read in
    real space projection operators read in
  non local Contribution for L=           1  read in
    real space projection operators read in
  non local Contribution for L=           2  read in
    real space projection operators read in
    PAW grid and wavefunctions read in
 
   number of l-projection  operators is LMAX  =           5
   number of lm-projection operators is LMMAX =          13
 
  PAW_PBE O_h 06Feb2004                 :
 energy of atom  1       EATOM= -432.3788
 kinetic energy error for atom=    0.0198 (will be added to EATOM!!)
  PAW_PBE Mg 13Apr2007                  :
 energy of atom  2       EATOM=  -23.0369
 kinetic energy error for atom=    0.0000 (will be added to EATOM!!)
 
 
 POSCAR: Mg1 O1                                  
  positions in direct lattice
  No initial velocities read in
 exchange correlation table for  LEXCH =        8
   RHO(1)=    0.500       N(1)  =     2000
   RHO(2)=  100.500       N(2)  =     4000
 


--------------------------------------------------------------------------------------------------------


 ion  position               nearest neighbor table
   1  0.500  0.500  0.500-   2 2.13   2 2.13   2 2.13   2 2.13   2 2.13   2 2.13
   2  0.000  0.000  0.000-   1 2.13   1 2.13   1 2.13   1 2.13   1 2.13   1 2.13
 
  LATTYP: Found a face centered cubic cell.
 ALAT       =     4.2564834762
  
  Lattice vectors:
  
 A1 = (   3.0097880000,   0.0000000000,   0.0000000000)
 A2 = (   1.5048940000,   2.6065530000,   0.0000000000)
 A3 = (   1.5048940000,   0.8688510000,   2.4574820000)


Analysis of symmetry for initial positions (statically):
=====================================================================
 Subroutine PRICEL returns:
 Original cell was already a primitive cell.
 

 Routine SETGRP: Setting up the symmetry group for a 
 face centered cubic supercell.


 Subroutine GETGRP returns: Found 48 space group operations
 (whereof 48 operations were pure point group operations)
 out of a pool of 48 trial point group operations.


The static configuration has the point symmetry O_h .


Analysis of symmetry for dynamics (positions and initial velocities):
=====================================================================
 Subroutine PRICEL returns:
 Original cell was already a primitive cell.
 

 Routine SETGRP: Setting up the symmetry group for a 
 face centered cubic supercell.


 Subroutine GETGRP returns: Found 48 space group operations
 (whereof 48 operations were pure point group operations)
 out of a pool of 48 trial point group operations.


The dynamic configuration has the point symmetry O_h .


 Subroutine INISYM returns: Found 48 space group operations
 (whereof 48 operations are pure point group operations),
 and found     1 'primitive' translations

 
 
 KPOINTS: Automatic Mesh                          

Automatic generation of k-mesh.
Space group operators:
 irot       det(A)        alpha          n_x          n_y          n_z        tau_x        tau_y        tau_z
    1     1.000000     0.000000     1.000000     0.000000     0.000000     0.000000     0.000000     0.000000
    2    -1.000000     0.000000     1.000000     0.000000     0.000000     0.000000     0.000000     0.000000
    3     1.000000   120.000000    -0.816497    -0.471404    -0.333333     0.000000     0.000000     0.000000
    4    -1.000000   120.000000    -0.816497    -0.471404    -0.333333     0.000000     0.000000     0.000000
    5     1.000000   120.000000     0.816497     0.471405     0.333333     0.000000     0.000000     0.000000
    6    -1.000000   120.000000     0.816497     0.471405     0.333333     0.000000     0.000000     0.000000
    7     1.000000    90.000000    -0.707107    -0.408248     0.577350     0.000000     0.000000     0.000000
    8    -1.000000    90.000000    -0.707107    -0.408248     0.577350     0.000000     0.000000     0.000000
    9     1.000000   180.000000     1.000000    -0.000000     0.000000     0.000000     0.000000     0.000000
   10    -1.000000   180.000000     1.000000    -0.000000     0.000000     0.000000     0.000000     0.000000
   11     1.000000    90.000000     0.707107    -0.408248     0.577350     0.000000     0.000000     0.000000
   12    -1.000000    90.000000     0.707107    -0.408248     0.577350     0.000000     0.000000     0.000000
   13     1.000000   180.000000     0.707107     0.408248    -0.577350     0.000000     0.000000     0.000000
   14    -1.000000   180.000000     0.707107     0.408248    -0.577350     0.000000     0.000000     0.000000
   15     1.000000   120.000000     0.816497    -0.471405    -0.333333     0.000000     0.000000     0.000000
   16    -1.000000   120.000000     0.816497    -0.471405    -0.333333     0.000000     0.000000     0.000000
   17     1.000000   120.000000     0.000000    -0.942809     0.333333     0.000000     0.000000     0.000000
   18    -1.000000   120.000000     0.000000    -0.942809     0.333333     0.000000     0.000000     0.000000
   19     1.000000    90.000000     0.707107     0.408248    -0.577350     0.000000     0.000000     0.000000
   20    -1.000000    90.000000     0.707107     0.408248    -0.577350     0.000000     0.000000     0.000000
   21     1.000000    90.000000    -0.000000    -0.816497    -0.577350     0.000000     0.000000     0.000000
   22    -1.000000    90.000000    -0.000000    -0.816497    -0.577350     0.000000     0.000000     0.000000
   23     1.000000   180.000000     0.500000     0.866025    -0.000000     0.000000     0.000000     0.000000
   24    -1.000000   180.000000     0.500000     0.866025    -0.000000     0.000000     0.000000     0.000000
   25     1.000000   120.000000     0.000000     0.942809    -0.333333     0.000000     0.000000     0.000000
   26    -1.000000   120.000000     0.000000     0.942809    -0.333333     0.000000     0.000000     0.000000
   27     1.000000   120.000000     0.000000     0.000000    -1.000000     0.000000     0.000000     0.000000
   28    -1.000000   120.000000     0.000000     0.000000    -1.000000     0.000000     0.000000     0.000000
   29     1.000000   180.000000     0.000000    -0.816497    -0.577350     0.000000     0.000000     0.000000
   30    -1.000000   180.000000     0.000000    -0.816497    -0.577350     0.000000     0.000000     0.000000
   31     1.000000    90.000000    -0.707107     0.408248    -0.577350     0.000000     0.000000     0.000000
   32    -1.000000    90.000000    -0.707107     0.408248    -0.577350     0.000000     0.000000     0.000000
   33     1.000000   180.000000     0.500000     0.288675     0.816497     0.000000     0.000000     0.000000
   34    -1.000000   180.000000     0.500000     0.288675     0.816497     0.000000     0.000000     0.000000
   35     1.000000    90.000000    -0.000000     0.816497     0.577350     0.000000     0.000000     0.000000
   36    -1.000000    90.000000    -0.000000     0.816497     0.577350     0.000000     0.000000     0.000000
   37     1.000000   120.000000    -0.816497     0.471404     0.333333     0.000000     0.000000     0.000000
   38    -1.000000   120.000000    -0.816497     0.471404     0.333333     0.000000     0.000000     0.000000
   39     1.000000   180.000000    -0.707107     0.408248    -0.577350     0.000000     0.000000     0.000000
   40    -1.000000   180.000000    -0.707107     0.408248    -0.577350     0.000000     0.000000     0.000000
   41     1.000000   120.000000     0.000000     0.000000     1.000000     0.000000     0.000000     0.000000
   42    -1.000000   120.000000     0.000000     0.000000     1.000000     0.000000     0.000000     0.000000
   43     1.000000   180.000000     0.000000    -0.577350     0.816497     0.000000     0.000000     0.000000
   44    -1.000000   180.000000     0.000000    -0.577350     0.816497     0.000000     0.000000     0.000000
   45     1.000000   180.000000    -0.500000     0.866025    -0.000000     0.000000     0.000000     0.000000
   46    -1.000000   180.000000    -0.500000     0.866025    -0.000000     0.000000     0.000000     0.000000
   47     1.000000   180.000000    -0.500000     0.288675     0.816497     0.000000     0.000000     0.000000
   48    -1.000000   180.000000    -0.500000     0.288675     0.816497     0.000000     0.000000     0.000000
 
 Subroutine IBZKPT returns following result:
 ===========================================
 
 Found     10 irreducible k-points:
 
 Following reciprocal coordinates:
            Coordinates               Weight
  0.125000  0.125000  0.125000     96.000000
  0.375000  0.125000  0.125000    288.000000
 -0.375000  0.125000  0.125000    288.000000
 -0.125000  0.125000  0.125000    288.000000
  0.375000  0.375000  0.125000    288.000000
 -0.375000  0.375000  0.125000    576.000000
 -0.125000  0.375000  0.125000    576.000000
 -0.375000 -0.375000  0.125000    288.000000
  0.375000  0.375000  0.375000     96.000000
 -0.375000  0.375000  0.375000    288.000000
 
 Following cartesian coordinates:
            Coordinates               Weight
  0.041531  0.023978  0.016955     96.000000
  0.124593 -0.023978 -0.016955    288.000000
 -0.124593  0.119890  0.084775    288.000000
 -0.041531  0.071934  0.050865    288.000000
  0.124593  0.071934 -0.050865    288.000000
 -0.124593  0.215802  0.050865    576.000000
 -0.041531  0.167846  0.016955    576.000000
 -0.124593 -0.071934  0.152595    288.000000
  0.124593  0.071934  0.050865     96.000000
 -0.124593  0.215802  0.152595    288.000000
 


--------------------------------------------------------------------------------------------------------




 Dimension of arrays:
   k-points           NKPTS =     10   k-points in BZ     NKDIM =     10   number of bands    NBANDS=     16
   number of dos      NEDOS =    301   number of ions     NIONS =      2
   non local maximal  LDIM  =      5   non local SUM 2l+1 LMDIM =     13
   total plane-waves  NPLWV =  27000
   max r-space proj   IRMAX =      1   max aug-charges    IRDMAX=  17825
   dimension x,y,z NGX =    30 NGY =   30 NGZ =   30
   dimension x,y,z NGXF=    40 NGYF=   40 NGZF=   40
   support grid    NGXF=    40 NGYF=   40 NGZF=   40
   ions per type =               1   1
 NGX,Y,Z   is equivalent  to a cutoff of  16.57, 16.57, 16.57 a.u.
 NGXF,Y,Z  is equivalent  to a cutoff of  22.09, 22.09, 22.09 a.u.


 I would recommend the setting:
   dimension x,y,z NGX =    29 NGY =   29 NGZ =   29
 SYSTEM =  automatically generated by pyflamestk   
 POSCAR =  Mg1 O1                                  

 Startparameter for this run:
   NWRITE =      2    write-flag & timer
   PREC   = high      normal or accurate (medium, high low for compatibility)
   ISTART =      0    job   : 0-new  1-cont  2-samecut
   ICHARG =      0    charge: 1-file 2-atom 10-const
   ISPIN  =      1    spin polarized calculation?
   LNONCOLLINEAR =      F non collinear calculations
   LSORBIT =      F    spin-orbit coupling
   INIWAV =      1    electr: 0-lowe 1-rand  2-diag
   LASPH  =      F    aspherical Exc in radial PAW
   METAGGA=      F    non-selfconsistent MetaGGA calc.

 Electronic Relaxation 1
   ENCUT  =  900.0 eV  66.15 Ry    8.13 a.u.   7.36  7.36  7.36*2*pi/ulx,y,z
   ENINI  =  900.0     initial cutoff
   ENAUG  =  888.8 eV  augmentation charge cutoff
   NELM   =     40;   NELMIN=  2; NELMDL= -5     # of ELM steps 
   EDIFF  = 0.1E-05   stopping-criterion for ELM
   LREAL  =      F    real-space projection
   NLSPLINE    = F    spline interpolate recip. space projectors
   LCOMPAT=      F    compatible to vasp.4.4
   GGA_COMPAT  = T    GGA compatible to vasp.4.4-vasp.4.6
   LMAXPAW     = -100 max onsite density
   LMAXMIX     =    2 max onsite mixed and CHGCAR
   VOSKOWN=      0    Vosko Wilk Nusair interpolation
   ROPT   =    0.00000   0.00000
 Ionic relaxation
   EDIFFG = 0.1E-04   stopping-criterion for IOM
   NSW    =      0    number of steps for IOM
   NBLOCK =      1;   KBLOCK =      1    inner block; outer block 
   IBRION =     -1    ionic relax: 0-MD 1-quasi-New 2-CG
   NFREE  =      0    steps in history (QN), initial steepest desc. (CG)
   ISIF   =      2    stress and relaxation
   IWAVPR =     10    prediction:  0-non 1-charg 2-wave 3-comb
   ISYM   =      2    0-nonsym 1-usesym 2-fastsym
   LCORR  =      T    Harris-Foulkes like correction to forces

   POTIM  = 0.5000    time-step for ionic-motion
   TEIN   =    0.0    initial temperature
   TEBEG  =    0.0;   TEEND  =   0.0 temperature during run
   SMASS  =  -3.00    Nose mass-parameter (am)
   estimated Nose-frequenzy (Omega)   =  0.10E-29 period in steps =****** mass=  -0.207E-27a.u.
   SCALEE = 1.0000    scale energy and forces
   NPACO  =    256;   APACO  = 16.0  distance and # of slots for P.C.
   PSTRESS=    0.0 pullay stress

  Mass of Ions in am
   POMASS =  16.00 24.30
  Ionic Valenz
   ZVAL   =   6.00  2.00
  Atomic Wigner-Seitz radii
   RWIGS  =  -1.00 -1.00
  virtual crystal weights 
   VCA    =   1.00  1.00
   NELECT =       8.0000    total number of electrons
   NUPDOWN=      -1.0000    fix difference up-down

 DOS related values:
   EMIN   =  10.00;   EMAX   =-10.00  energy-range for DOS
   EFERMI =   0.00
   ISMEAR =     0;   SIGMA  =   0.05  broadening in eV -4-tet -1-fermi 0-gaus

 Electronic relaxation 2 (details)
   IALGO  =     38    algorithm
   LDIAG  =      T    sub-space diagonalisation (order eigenvalues)
   LSUBROT=      F    optimize rotation matrix (better conditioning)
   TURBO    =      0    0=normal 1=particle mesh
   IRESTART =      0    0=no restart 2=restart with 2 vectors
   NREBOOT  =      0    no. of reboots
   NMIN     =      0    reboot dimension
   EREF     =   0.00    reference energy to select bands
   IMIX   =      4    mixing-type and parameters
     AMIX     =   0.40;   BMIX     =  1.00
     AMIX_MAG =   1.60;   BMIX_MAG =  1.00
     AMIN     =   0.10
     WC   =   100.;   INIMIX=   1;  MIXPRE=   1;  MAXMIX= -45

 Intra band minimization:
   WEIMIN = 0.0000     energy-eigenvalue tresh-hold
   EBREAK =  0.16E-07  absolut break condition
   DEPER  =   0.30     relativ break condition  

   TIME   =   0.40     timestep for ELM

  volume/ion in A,a.u.               =       9.64        65.05
  Fermi-wavevector in a.u.,A,eV,Ry     =   1.221070  2.307488 20.286449  1.491012
  Thomas-Fermi vector in A             =   2.356265
 
 Write flags
   LWAVE  =      F    write WAVECAR
   LCHARG =      F    write CHGCAR
   LVTOT  =      F    write LOCPOT, total local potential
   LVHAR  =      F    write LOCPOT, Hartree potential only
   LELF   =      F    write electronic localiz. function (ELF)
   LORBIT =      0    0 simple, 1 ext, 2 COOP (PROOUT)


 Dipole corrections
   LMONO  =      F    monopole corrections only (constant potential shift)
   LDIPOL =      F    correct potential (dipole corrections)
   IDIPOL =      0    1-x, 2-y, 3-z, 4-all directions 
   EPSILON=  1.0000000 bulk dielectric constant

 Exchange correlation treatment:
   GGA     =    --    GGA type
   LEXCH   =     8    internal setting for exchange type
   VOSKOWN=      0    Vosko Wilk Nusair interpolation
   LHFCALC =     F    Hartree Fock is set to
   LHFONE  =     F    Hartree Fock one center treatment
   AEXX    =    0.0000 exact exchange contribution

 Linear response parameters
   LEPSILON=     F    determine dielectric tensor
   LRPA    =     F    only Hartree local field effects (RPA)
   LNABLA  =     F    use nabla operator in PAW spheres
   LVEL    =     F    velocity operator in full k-point grid
   LINTERFAST=   F  fast interpolation
   KINTER  =     0    interpolate to denser k-point grid
   CSHIFT  =0.1000    complex shift for real part using Kramers Kronig
   OMEGAMAX=  -1.0    maximum frequency
   DEG_THRESHOLD= 0.2000000E-02 threshold for treating states as degnerate
   RTIME   =    0.100 relaxation time in fs

 Orbital magnetization related:
   ORBITALMAG=     F  switch on orbital magnetization
   LCHIMAG   =     F  perturbation theory with respect to B field
   DQ        =  0.001000  dq finite difference perturbation B field



--------------------------------------------------------------------------------------------------------


 Static calculation
 charge density and potential will be updated during run
 non-spin polarized calculation
 Variant of blocked Davidson
 Davidson routine will perform the subspace rotation
 perform sub-space diagonalisation
    after iterative eigenvector-optimisation
 modified Broyden-mixing scheme, WC =      100.0
 initial mixing is a Kerker type mixing with AMIX =  0.4000 and BMIX =      1.0000
 Hartree-type preconditioning will be used
 using additional bands           12
 reciprocal scheme for non local part
 use partial core corrections
 calculate Harris-corrections to forces 
   (improved forces if not selfconsistent)
 use gradient corrections 
 use of overlap-Matrix (Vanderbilt PP)
 Gauss-broadening in eV      SIGMA  =   0.05


--------------------------------------------------------------------------------------------------------


  energy-cutoff  :      900.00
  volume of cell :       19.28
      direct lattice vectors                 reciprocal lattice vectors
     3.009788000  0.000000000  0.000000000     0.332249315 -0.191824221 -0.135640193
     1.504894000  2.606553000  0.000000000     0.000000000  0.383648443 -0.135640193
     1.504894000  0.868851000  2.457482000     0.000000000  0.000000000  0.406920580

  length of vectors
     3.009788000  3.009788114  3.009788330     0.406920632  0.406920619  0.406920580


 
 k-points in units of 2pi/SCALE and weight: Automatic Mesh                          
   0.04153116  0.02397803  0.01695502       0.031
   0.12459349 -0.02397803 -0.01695502       0.094
  -0.12459349  0.11989014  0.08477512       0.094
  -0.04153116  0.07193408  0.05086507       0.094
   0.12459349  0.07193408 -0.05086507       0.094
  -0.12459349  0.21580225  0.05086507       0.188
  -0.04153116  0.16784619  0.01695502       0.188
  -0.12459349 -0.07193408  0.15259522       0.094
   0.12459349  0.07193408  0.05086507       0.031
  -0.12459349  0.21580225  0.15259522       0.094
 
 k-points in reciprocal lattice and weights: Automatic Mesh                          
   0.12500000  0.12500000  0.12500000       0.031
   0.37500000  0.12500000  0.12500000       0.094
  -0.37500000  0.12500000  0.12500000       0.094
  -0.12500000  0.12500000  0.12500000       0.094
   0.37500000  0.37500000  0.12500000       0.094
  -0.37500000  0.37500000  0.12500000       0.188
  -0.12500000  0.37500000  0.12500000       0.188
  -0.37500000 -0.37500000  0.12500000       0.094
   0.37500000  0.37500000  0.37500000       0.031
  -0.37500000  0.37500000  0.37500000       0.094
 
 position of ions in fractional coordinates (direct lattice) 
   0.50000000  0.50000000  0.50000000
   0.00000000  0.00000000  0.00000000
 
 position of ions in cartesian coordinates  (Angst):
   3.00978800  1.73770200  1.22874100
   0.00000000  0.00000000  0.00000000
 


--------------------------------------------------------------------------------------------------------


 k-point  1 :   0.1250 0.1250 0.1250  plane waves:    1209
 k-point  2 :   0.3750 0.1250 0.1250  plane waves:    1186
 k-point  3 :  -0.3750 0.1250 0.1250  plane waves:    1180
 k-point  4 :  -0.1250 0.1250 0.1250  plane waves:    1185
 k-point  5 :   0.3750 0.3750 0.1250  plane waves:    1185
 k-point  6 :  -0.3750 0.3750 0.1250  plane waves:    1176
 k-point  7 :  -0.1250 0.3750 0.1250  plane waves:    1179
 k-point  8 :  -0.3750-0.3750 0.1250  plane waves:    1178
 k-point  9 :   0.3750 0.3750 0.3750  plane waves:    1170
 k-point 10 :  -0.3750 0.3750 0.3750  plane waves:    1175

 maximum and minimum number of plane-waves per node :      1209     1170

 maximum number of plane-waves:      1209
 maximum index in each direction: 
   IXMAX=    7   IYMAX=    7   IZMAX=    7
   IXMIN=   -7   IYMIN=   -7   IZMIN=   -7

 NGX is ok and might be reduce to  30
 NGY is ok and might be reduce to  30
 NGZ is ok and might be reduce to  30

 serial   3D FFT for wavefunctions
 parallel 3D FFT for charge:
    minimum data exchange during FFTs selected (reduces bandwidth)


 total amount of memory used by VASP on root node    34446. kBytes
========================================================================

   base      :      30000. kBytes
   nonl-proj :       2568. kBytes
   fftplans  :        291. kBytes
   grid      :       1372. kBytes
   one-center:         16. kBytes
   wavefun   :        199. kBytes
 
     INWAV:  cpu time    0.0000: real time    0.0001
 Broyden mixing: mesh for mixing (old mesh)
   NGX = 15   NGY = 15   NGZ = 15
  (NGX  = 40   NGY  = 40   NGZ  = 40)
  gives a total of   3375 points

 charge density for first step will be calculated from the start-wavefunctions


--------------------------------------------------------------------------------------------------------


 Maximum index for augmentation-charges         1435 (set IRDMAX)


--------------------------------------------------------------------------------------------------------


 initial charge from wavefunction
 First call to EWALD:  gamma=   0.661
 Maximum number of real-space cells 3x 3x 3
 Maximum number of reciprocal cells 3x 3x 3

 FEWALD executed in parallel
    FEWALD:  cpu time    0.0020: real time    0.0015


----------------------------------------- Iteration    1(   1)  ---------------------------------------


    POTLOK:  cpu time    0.0050: real time    0.0053
    SETDIJ:  cpu time    0.0030: real time    0.0028
     EDDAV:  cpu time    0.0610: real time    0.0612
       DOS:  cpu time    0.0000: real time    0.0002
    --------------------------------------------
      LOOP:  cpu time    0.0720: real time    0.0743

 eigenvalue-minimisations  :   336
 total energy-change (2. order) :-0.2255048E+03  (-0.1050344E+04)
 number of electron       7.9999999 magnetization 
 augmentation part       -0.8492473 magnetization 

 Free energy of the ion-electron system (eV)
  ---------------------------------------------------
  alpha Z        PSCENC =        15.79325893
  Ewald energy   TEWEN  =      -354.45312954
  -Hartree energ DENC   =       -25.98467637
  -exchange      EXHF   =         0.00000000
  -V(xc)+E(xc)   XCENC  =       -30.28680460
  PAW double counting   =    159848.02224630  -159794.75804307
  entropy T*S    EENTRO =        -0.00000000
  eigenvalues    EBANDS =      -339.23357893
  atomic energy  EATOM  =       455.39587916
  Solvation  Ediel_sol  =         0.00000000
  ---------------------------------------------------
  free energy    TOTEN  =      -225.50484810 eV

  energy without entropy =     -225.50484810  energy(sigma->0) =     -225.50484810


--------------------------------------------------------------------------------------------------------




----------------------------------------- Iteration    1(   2)  ---------------------------------------


     EDDAV:  cpu time    0.0860: real time    0.0861
       DOS:  cpu time    0.0000: real time    0.0001
    --------------------------------------------
      LOOP:  cpu time    0.0860: real time    0.0885

 eigenvalue-minimisations  :   464
 total energy-change (2. order) :-0.7306583E+02  (-0.7306583E+02)
 number of electron       7.9999999 magnetization 
 augmentation part       -0.8492473 magnetization 

 Free energy of the ion-electron system (eV)
  ---------------------------------------------------
  alpha Z        PSCENC =        15.79325893
  Ewald energy   TEWEN  =      -354.45312954
  -Hartree energ DENC   =       -25.98467637
  -exchange      EXHF   =         0.00000000
  -V(xc)+E(xc)   XCENC  =       -30.28680460
  PAW double counting   =    159848.02224630  -159794.75804307
  entropy T*S    EENTRO =        -0.00000000
  eigenvalues    EBANDS =      -412.29940940
  atomic energy  EATOM  =       455.39587916
  Solvation  Ediel_sol  =         0.00000000
  ---------------------------------------------------
  free energy    TOTEN  =      -298.57067857 eV

  energy without entropy =     -298.57067857  energy(sigma->0) =     -298.57067857


--------------------------------------------------------------------------------------------------------




----------------------------------------- Iteration    1(   3)  ---------------------------------------


     EDDAV:  cpu time    0.0660: real time    0.0671
       DOS:  cpu time    0.0010: real time    0.0001
    --------------------------------------------
      LOOP:  cpu time    0.0680: real time    0.0699

 eigenvalue-minimisations  :   368
 total energy-change (2. order) :-0.3631918E+00  (-0.3631918E+00)
 number of electron       7.9999999 magnetization 
 augmentation part       -0.8492473 magnetization 

 Free energy of the ion-electron system (eV)
  ---------------------------------------------------
  alpha Z        PSCENC =        15.79325893
  Ewald energy   TEWEN  =      -354.45312954
  -Hartree energ DENC   =       -25.98467637
  -exchange      EXHF   =         0.00000000
  -V(xc)+E(xc)   XCENC  =       -30.28680460
  PAW double counting   =    159848.02224630  -159794.75804307
  entropy T*S    EENTRO =        -0.00000000
  eigenvalues    EBANDS =      -412.66260115
  atomic energy  EATOM  =       455.39587916
  Solvation  Ediel_sol  =         0.00000000
  ---------------------------------------------------
  free energy    TOTEN  =      -298.93387033 eV

  energy without entropy =     -298.93387033  energy(sigma->0) =     -298.93387033


--------------------------------------------------------------------------------------------------------




----------------------------------------- Iteration    1(   4)  ---------------------------------------


     EDDAV:  cpu time    0.1120: real time    0.1121
       DOS:  cpu time    0.0000: real time    0.0001
    --------------------------------------------
      LOOP:  cpu time    0.1120: real time    0.1146

 eigenvalue-minimisations  :   576
 total energy-change (2. order) :-0.1348712E-02  (-0.1348715E-02)
 number of electron       7.9999999 magnetization 
 augmentation part       -0.8492473 magnetization 

 Free energy of the ion-electron system (eV)
  ---------------------------------------------------
  alpha Z        PSCENC =        15.79325893
  Ewald energy   TEWEN  =      -354.45312954
  -Hartree energ DENC   =       -25.98467637
  -exchange      EXHF   =         0.00000000
  -V(xc)+E(xc)   XCENC  =       -30.28680460
  PAW double counting   =    159848.02224630  -159794.75804307
  entropy T*S    EENTRO =        -0.00000000
  eigenvalues    EBANDS =      -412.66394986
  atomic energy  EATOM  =       455.39587916
  Solvation  Ediel_sol  =         0.00000000
  ---------------------------------------------------
  free energy    TOTEN  =      -298.93521904 eV

  energy without entropy =     -298.93521904  energy(sigma->0) =     -298.93521904


--------------------------------------------------------------------------------------------------------




----------------------------------------- Iteration    1(   5)  ---------------------------------------


     EDDAV:  cpu time    0.0700: real time    0.0699
       DOS:  cpu time    0.0000: real time    0.0001
    CHARGE:  cpu time    0.0120: real time    0.0124
    MIXING:  cpu time    0.0000: real time    0.0003
    --------------------------------------------
      LOOP:  cpu time    0.0820: real time    0.0857

 eigenvalue-minimisations  :   384
 total energy-change (2. order) :-0.6613197E-07  (-0.6660462E-07)
 number of electron       7.9999985 magnetization 
 augmentation part        0.5919961 magnetization 

 Broyden mixing:
  rms(total) = 0.92261E+01    rms(broyden)= 0.92153E+01
  rms(prec ) = 0.28616E+02
  weight for this iteration     100.00

 Free energy of the ion-electron system (eV)
  ---------------------------------------------------
  alpha Z        PSCENC =        15.79325893
  Ewald energy   TEWEN  =      -354.45312954
  -Hartree energ DENC   =       -25.98467637
  -exchange      EXHF   =         0.00000000
  -V(xc)+E(xc)   XCENC  =       -30.28680460
  PAW double counting   =    159848.02224630  -159794.75804307
  entropy T*S    EENTRO =        -0.00000000
  eigenvalues    EBANDS =      -412.66394993
  atomic energy  EATOM  =       455.39587916
  Solvation  Ediel_sol  =         0.00000000
  ---------------------------------------------------
  free energy    TOTEN  =      -298.93521911 eV

  energy without entropy =     -298.93521911  energy(sigma->0) =     -298.93521911


--------------------------------------------------------------------------------------------------------




----------------------------------------- Iteration    1(   6)  ---------------------------------------


    POTLOK:  cpu time    0.0040: real time    0.0044
    SETDIJ:  cpu time    0.0030: real time    0.0027
     EDDAV:  cpu time    0.0570: real time    0.0572
       DOS:  cpu time    0.0000: real time    0.0001
    CHARGE:  cpu time    0.0110: real time    0.0110
    MIXING:  cpu time    0.0000: real time    0.0003
    --------------------------------------------
      LOOP:  cpu time    0.0760: real time    0.0785

 eigenvalue-minimisations  :   320
 total energy-change (2. order) : 0.2343985E+03  (-0.2792166E+02)
 number of electron       7.9999994 magnetization 
 augmentation part        0.2538591 magnetization 

 Broyden mixing:
  rms(total) = 0.38673E+01    rms(broyden)= 0.38657E+01
  rms(prec ) = 0.13141E+02
  weight for this iteration     100.00

 eigenvalues of (default mixing * dielectric matrix)
  average eigenvalue GAMMA=   1.4621
  1.4621

 Free energy of the ion-electron system (eV)
  ---------------------------------------------------
  alpha Z        PSCENC =        15.79325893
  Ewald energy   TEWEN  =      -354.45312954
  -Hartree energ DENC   =       -66.30819498
  -exchange      EXHF   =         0.00000000
  -V(xc)+E(xc)   XCENC  =       -26.30026514
  PAW double counting   =    392437.65983173  -392388.02776010
  entropy T*S    EENTRO =        -0.00000000
  eigenvalues    EBANDS =      -138.29636131
  atomic energy  EATOM  =       455.39587916
  Solvation  Ediel_sol  =         0.00000000
  ---------------------------------------------------
  free energy    TOTEN  =       -64.53674124 eV

  energy without entropy =      -64.53674124  energy(sigma->0) =      -64.53674124


--------------------------------------------------------------------------------------------------------




----------------------------------------- Iteration    1(   7)  ---------------------------------------


    POTLOK:  cpu time    0.0040: real time    0.0043
    SETDIJ:  cpu time    0.0030: real time    0.0026
     EDDAV:  cpu time    0.0910: real time    0.0916
       DOS:  cpu time    0.0000: real time    0.0001
    CHARGE:  cpu time    0.0120: real time    0.0122
    MIXING:  cpu time    0.0010: real time    0.0003
    --------------------------------------------
      LOOP:  cpu time    0.1120: real time    0.1131

 eigenvalue-minimisations  :   496
 total energy-change (2. order) : 0.4227175E+02  (-0.3783308E+02)
 number of electron       8.0000001 magnetization 
 augmentation part       -0.0137614 magnetization 

 Broyden mixing:
  rms(total) = 0.25515E+01    rms(broyden)= 0.25500E+01
  rms(prec ) = 0.68292E+01
  weight for this iteration     100.00

 eigenvalues of (default mixing * dielectric matrix)
  average eigenvalue GAMMA=   1.3163
  1.3163  1.3163

 Free energy of the ion-electron system (eV)
  ---------------------------------------------------
  alpha Z        PSCENC =        15.79325893
  Ewald energy   TEWEN  =      -354.45312954
  -Hartree energ DENC   =      -178.07126942
  -exchange      EXHF   =         0.00000000
  -V(xc)+E(xc)   XCENC  =       -18.86468587
  PAW double counting   =     57272.37599461   -57224.14346647
  entropy T*S    EENTRO =        -0.00000000
  eigenvalues    EBANDS =         9.70242860
  atomic energy  EATOM  =       455.39587916
  Solvation  Ediel_sol  =         0.00000000
  ---------------------------------------------------
  free energy    TOTEN  =       -22.26498999 eV

  energy without entropy =      -22.26498999  energy(sigma->0) =      -22.26498999


--------------------------------------------------------------------------------------------------------




----------------------------------------- Iteration    1(   8)  ---------------------------------------


    POTLOK:  cpu time    0.0040: real time    0.0045
    SETDIJ:  cpu time    0.0030: real time    0.0026
     EDDAV:  cpu time    0.0600: real time    0.0605
       DOS:  cpu time    0.0010: real time    0.0001
    CHARGE:  cpu time    0.0110: real time    0.0116
    MIXING:  cpu time    0.0000: real time    0.0003
    --------------------------------------------
      LOOP:  cpu time    0.0790: real time    0.0818

 eigenvalue-minimisations  :   336
 total energy-change (2. order) : 0.1581694E+01  (-0.1746814E+02)
 number of electron       7.9999996 magnetization 
 augmentation part        0.1488021 magnetization 

 Broyden mixing:
  rms(total) = 0.16293E+01    rms(broyden)= 0.16291E+01
  rms(prec ) = 0.58891E+01
  weight for this iteration     100.00

 eigenvalues of (default mixing * dielectric matrix)
  average eigenvalue GAMMA=   1.5663
  2.6046  1.3295  0.7647

 Free energy of the ion-electron system (eV)
  ---------------------------------------------------
  alpha Z        PSCENC =        15.79325893
  Ewald energy   TEWEN  =      -354.45312954
  -Hartree energ DENC   =      -101.37427790
  -exchange      EXHF   =         0.00000000
  -V(xc)+E(xc)   XCENC  =       -23.98433916
  PAW double counting   =     67281.03673453   -67231.01734197
  entropy T*S    EENTRO =        -0.00000000
  eigenvalues    EBANDS =       -62.08008011
  atomic energy  EATOM  =       455.39587916
  Solvation  Ediel_sol  =         0.00000000
  ---------------------------------------------------
  free energy    TOTEN  =       -20.68329606 eV

  energy without entropy =      -20.68329606  energy(sigma->0) =      -20.68329606


--------------------------------------------------------------------------------------------------------




----------------------------------------- Iteration    1(   9)  ---------------------------------------


    POTLOK:  cpu time    0.0040: real time    0.0043
    SETDIJ:  cpu time    0.0030: real time    0.0026
     EDDAV:  cpu time    0.0570: real time    0.0573
       DOS:  cpu time    0.0000: real time    0.0001
    CHARGE:  cpu time    0.0110: real time    0.0115
    MIXING:  cpu time    0.0010: real time    0.0003
    --------------------------------------------
      LOOP:  cpu time    0.0770: real time    0.0783

 eigenvalue-minimisations  :   320
 total energy-change (2. order) : 0.8720988E+01  (-0.3122787E+01)
 number of electron       7.9999998 magnetization 
 augmentation part        0.0797681 magnetization 

 Broyden mixing:
  rms(total) = 0.24207E+00    rms(broyden)= 0.24183E+00
  rms(prec ) = 0.65363E+00
  weight for this iteration     100.00

 eigenvalues of (default mixing * dielectric matrix)
  average eigenvalue GAMMA=   1.4971
  2.5830  1.3273  1.3273  0.7507

 Free energy of the ion-electron system (eV)
  ---------------------------------------------------
  alpha Z        PSCENC =        15.79325893
  Ewald energy   TEWEN  =      -354.45312954
  -Hartree energ DENC   =      -138.47059521
  -exchange      EXHF   =         0.00000000
  -V(xc)+E(xc)   XCENC  =       -20.91315645
  PAW double counting   =       993.23983929     -942.73104281
  entropy T*S    EENTRO =        -0.00000000
  eigenvalues    EBANDS =       -19.82336122
  atomic energy  EATOM  =       455.39587916
  Solvation  Ediel_sol  =         0.00000000
  ---------------------------------------------------
  free energy    TOTEN  =       -11.96230785 eV

  energy without entropy =      -11.96230785  energy(sigma->0) =      -11.96230785


--------------------------------------------------------------------------------------------------------




----------------------------------------- Iteration    1(  10)  ---------------------------------------


    POTLOK:  cpu time    0.0040: real time    0.0043
    SETDIJ:  cpu time    0.0030: real time    0.0026
     EDDAV:  cpu time    0.0760: real time    0.0765
       DOS:  cpu time    0.0000: real time    0.0001
    CHARGE:  cpu time    0.0120: real time    0.0118
    MIXING:  cpu time    0.0000: real time    0.0003
    --------------------------------------------
      LOOP:  cpu time    0.0950: real time    0.0979

 eigenvalue-minimisations  :   416
 total energy-change (2. order) :-0.1998225E-01  (-0.2083549E+00)
 number of electron       7.9999999 magnetization 
 augmentation part        0.0606659 magnetization 

 Broyden mixing:
  rms(total) = 0.19108E+00    rms(broyden)= 0.19094E+00
  rms(prec ) = 0.60483E+00
  weight for this iteration     100.00

 eigenvalues of (default mixing * dielectric matrix)
  average eigenvalue GAMMA=   1.6440
  2.7230  2.5537  1.2285  0.8660  0.8486

 Free energy of the ion-electron system (eV)
  ---------------------------------------------------
  alpha Z        PSCENC =        15.79325893
  Ewald energy   TEWEN  =      -354.45312954
  -Hartree energ DENC   =      -145.44208509
  -exchange      EXHF   =         0.00000000
  -V(xc)+E(xc)   XCENC  =       -20.46670738
  PAW double counting   =       805.98075969     -755.65404168
  entropy T*S    EENTRO =        -0.00000000
  eigenvalues    EBANDS =       -13.13622419
  atomic energy  EATOM  =       455.39587916
  Solvation  Ediel_sol  =         0.00000000
  ---------------------------------------------------
  free energy    TOTEN  =       -11.98229010 eV

  energy without entropy =      -11.98229010  energy(sigma->0) =      -11.98229010


--------------------------------------------------------------------------------------------------------




----------------------------------------- Iteration    1(  11)  ---------------------------------------


    POTLOK:  cpu time    0.0040: real time    0.0044
    SETDIJ:  cpu time    0.0030: real time    0.0027
     EDDAV:  cpu time    0.0630: real time    0.0631
       DOS:  cpu time    0.0000: real time    0.0001
    CHARGE:  cpu time    0.0110: real time    0.0115
    MIXING:  cpu time    0.0010: real time    0.0004
    --------------------------------------------
      LOOP:  cpu time    0.0830: real time    0.0844

 eigenvalue-minimisations  :   352
 total energy-change (2. order) : 0.5970733E-01  (-0.6901704E-01)
 number of electron       7.9999999 magnetization 
 augmentation part        0.0717340 magnetization 

 Broyden mixing:
  rms(total) = 0.39132E-01    rms(broyden)= 0.39100E-01
  rms(prec ) = 0.14268E+00
  weight for this iteration     100.00

 eigenvalues of (default mixing * dielectric matrix)
  average eigenvalue GAMMA=   1.5780
  2.9085  2.5368  1.3099  0.8371  0.9380  0.9380

 Free energy of the ion-electron system (eV)
  ---------------------------------------------------
  alpha Z        PSCENC =        15.79325893
  Ewald energy   TEWEN  =      -354.45312954
  -Hartree energ DENC   =      -140.79834472
  -exchange      EXHF   =         0.00000000
  -V(xc)+E(xc)   XCENC  =       -20.75304201
  PAW double counting   =       672.46688810     -622.07179888
  entropy T*S    EENTRO =        -0.00000000
  eigenvalues    EBANDS =       -17.50229381
  atomic energy  EATOM  =       455.39587916
  Solvation  Ediel_sol  =         0.00000000
  ---------------------------------------------------
  free energy    TOTEN  =       -11.92258277 eV

  energy without entropy =      -11.92258277  energy(sigma->0) =      -11.92258277


--------------------------------------------------------------------------------------------------------




----------------------------------------- Iteration    1(  12)  ---------------------------------------


    POTLOK:  cpu time    0.0040: real time    0.0045
    SETDIJ:  cpu time    0.0030: real time    0.0027
     EDDAV:  cpu time    0.0770: real time    0.0773
       DOS:  cpu time    0.0000: real time    0.0001
    CHARGE:  cpu time    0.0120: real time    0.0121
    MIXING:  cpu time    0.0010: real time    0.0004
    --------------------------------------------
      LOOP:  cpu time    0.0970: real time    0.0991

 eigenvalue-minimisations  :   416
 total energy-change (2. order) : 0.3419595E-02  (-0.2806375E-02)
 number of electron       7.9999999 magnetization 
 augmentation part        0.0697637 magnetization 

 Broyden mixing:
  rms(total) = 0.31836E-02    rms(broyden)= 0.31790E-02
  rms(prec ) = 0.11494E-01
  weight for this iteration     100.00

 eigenvalues of (default mixing * dielectric matrix)
  average eigenvalue GAMMA=   1.5204
  2.8842  2.5360  1.4008  1.1838  0.8283  0.8283  0.9817

 Free energy of the ion-electron system (eV)
  ---------------------------------------------------
  alpha Z        PSCENC =        15.79325893
  Ewald energy   TEWEN  =      -354.45312954
  -Hartree energ DENC   =      -141.73073452
  -exchange      EXHF   =         0.00000000
  -V(xc)+E(xc)   XCENC  =       -20.68232839
  PAW double counting   =       606.45725148     -556.07670066
  entropy T*S    EENTRO =        -0.00000000
  eigenvalues    EBANDS =       -16.62265965
  atomic energy  EATOM  =       455.39587916
  Solvation  Ediel_sol  =         0.00000000
  ---------------------------------------------------
  free energy    TOTEN  =       -11.91916318 eV

  energy without entropy =      -11.91916318  energy(sigma->0) =      -11.91916318


--------------------------------------------------------------------------------------------------------




----------------------------------------- Iteration    1(  13)  ---------------------------------------


    POTLOK:  cpu time    0.0050: real time    0.0046
    SETDIJ:  cpu time    0.0020: real time    0.0026
     EDDAV:  cpu time    0.0740: real time    0.0748
       DOS:  cpu time    0.0010: real time    0.0001
    CHARGE:  cpu time    0.0110: real time    0.0119
    MIXING:  cpu time    0.0010: real time    0.0004
    --------------------------------------------
      LOOP:  cpu time    0.0940: real time    0.0969

 eigenvalue-minimisations  :   400
 total energy-change (2. order) :-0.3446304E-04  (-0.8830716E-04)
 number of electron       7.9999999 magnetization 
 augmentation part        0.0693787 magnetization 

 Broyden mixing:
  rms(total) = 0.44290E-02    rms(broyden)= 0.44270E-02
  rms(prec ) = 0.12098E-01
  weight for this iteration     100.00

 eigenvalues of (default mixing * dielectric matrix)
  average eigenvalue GAMMA=   1.6817
  3.2892  2.6925  2.5264  1.2847  0.8914  0.8914  0.8968  0.9809

 Free energy of the ion-electron system (eV)
  ---------------------------------------------------
  alpha Z        PSCENC =        15.79325893
  Ewald energy   TEWEN  =      -354.45312954
  -Hartree energ DENC   =      -141.86032876
  -exchange      EXHF   =         0.00000000
  -V(xc)+E(xc)   XCENC  =       -20.67467441
  PAW double counting   =       624.63744905     -574.25943699
  entropy T*S    EENTRO =        -0.00000000
  eigenvalues    EBANDS =       -16.49821509
  atomic energy  EATOM  =       455.39587916
  Solvation  Ediel_sol  =         0.00000000
  ---------------------------------------------------
  free energy    TOTEN  =       -11.91919764 eV

  energy without entropy =      -11.91919764  energy(sigma->0) =      -11.91919764


--------------------------------------------------------------------------------------------------------




----------------------------------------- Iteration    1(  14)  ---------------------------------------


    POTLOK:  cpu time    0.0040: real time    0.0047
    SETDIJ:  cpu time    0.0030: real time    0.0026
     EDDAV:  cpu time    0.0860: real time    0.0862
       DOS:  cpu time    0.0000: real time    0.0001
    CHARGE:  cpu time    0.0120: real time    0.0120
    MIXING:  cpu time    0.0000: real time    0.0004
    --------------------------------------------
      LOOP:  cpu time    0.1050: real time    0.1087

 eigenvalue-minimisations  :   464
 total energy-change (2. order) : 0.2430261E-04  (-0.2345470E-04)
 number of electron       7.9999999 magnetization 
 augmentation part        0.0696090 magnetization 

 Broyden mixing:
  rms(total) = 0.93316E-03    rms(broyden)= 0.93235E-03
  rms(prec ) = 0.23807E-02
  weight for this iteration     100.00

 eigenvalues of (default mixing * dielectric matrix)
  average eigenvalue GAMMA=   1.5813
  2.9861  2.6835  2.5197  1.2090  1.2090  0.8808  0.8808  0.9315  0.9315

 Free energy of the ion-electron system (eV)
  ---------------------------------------------------
  alpha Z        PSCENC =        15.79325893
  Ewald energy   TEWEN  =      -354.45312954
  -Hartree energ DENC   =      -141.79897515
  -exchange      EXHF   =         0.00000000
  -V(xc)+E(xc)   XCENC  =       -20.67830564
  PAW double counting   =       641.11878051     -590.73855031
  entropy T*S    EENTRO =        -0.00000000
  eigenvalues    EBANDS =       -16.55813130
  atomic energy  EATOM  =       455.39587916
  Solvation  Ediel_sol  =         0.00000000
  ---------------------------------------------------
  free energy    TOTEN  =       -11.91917334 eV

  energy without entropy =      -11.91917334  energy(sigma->0) =      -11.91917334


--------------------------------------------------------------------------------------------------------




----------------------------------------- Iteration    1(  15)  ---------------------------------------


    POTLOK:  cpu time    0.0040: real time    0.0046
    SETDIJ:  cpu time    0.0030: real time    0.0026
     EDDAV:  cpu time    0.0660: real time    0.0661
       DOS:  cpu time    0.0000: real time    0.0001
    CHARGE:  cpu time    0.0120: real time    0.0115
    MIXING:  cpu time    0.0000: real time    0.0005
    --------------------------------------------
      LOOP:  cpu time    0.0860: real time    0.0884

 eigenvalue-minimisations  :   368
 total energy-change (2. order) : 0.4406825E-06  (-0.1358838E-05)
 number of electron       7.9999999 magnetization 
 augmentation part        0.0695589 magnetization 

 Broyden mixing:
  rms(total) = 0.30590E-03    rms(broyden)= 0.30584E-03
  rms(prec ) = 0.11527E-02
  weight for this iteration     100.00

 eigenvalues of (default mixing * dielectric matrix)
  average eigenvalue GAMMA=   1.6943
  3.2525  2.8348  2.5248  2.4330  1.2792  0.8899  0.8899  1.0180  0.8771  0.9434

 Free energy of the ion-electron system (eV)
  ---------------------------------------------------
  alpha Z        PSCENC =        15.79325893
  Ewald energy   TEWEN  =      -354.45312954
  -Hartree energ DENC   =      -141.81574786
  -exchange      EXHF   =         0.00000000
  -V(xc)+E(xc)   XCENC  =       -20.67747426
  PAW double counting   =       639.03246913     -588.65271823
  entropy T*S    EENTRO =        -0.00000000
  eigenvalues    EBANDS =       -16.54171023
  atomic energy  EATOM  =       455.39587916
  Solvation  Ediel_sol  =         0.00000000
  ---------------------------------------------------
  free energy    TOTEN  =       -11.91917290 eV

  energy without entropy =      -11.91917290  energy(sigma->0) =      -11.91917290


--------------------------------------------------------------------------------------------------------




----------------------------------------- Iteration    1(  16)  ---------------------------------------


    POTLOK:  cpu time    0.0050: real time    0.0045
    SETDIJ:  cpu time    0.0030: real time    0.0026
     EDDAV:  cpu time    0.0340: real time    0.0343
       DOS:  cpu time    0.0000: real time    0.0001
    --------------------------------------------
      LOOP:  cpu time    0.0420: real time    0.0441

 eigenvalue-minimisations  :   160
 total energy-change (2. order) : 0.4992512E-07  (-0.6877087E-07)
 number of electron       7.9999999 magnetization 
 augmentation part        0.0695589 magnetization 

 Free energy of the ion-electron system (eV)
  ---------------------------------------------------
  alpha Z        PSCENC =        15.79325893
  Ewald energy   TEWEN  =      -354.45312954
  -Hartree energ DENC   =      -141.81052856
  -exchange      EXHF   =         0.00000000
  -V(xc)+E(xc)   XCENC  =       -20.67791040
  PAW double counting   =       636.92820447     -586.54842100
  entropy T*S    EENTRO =        -0.00000000
  eigenvalues    EBANDS =       -16.54652591
  atomic energy  EATOM  =       455.39587916
  Solvation  Ediel_sol  =         0.00000000
  ---------------------------------------------------
  free energy    TOTEN  =       -11.91917285 eV

  energy without entropy =      -11.91917285  energy(sigma->0) =      -11.91917285


--------------------------------------------------------------------------------------------------------




 average (electrostatic) potential at core
  the test charge radii are     0.5955  1.0714
  (the norm of the test charge is              1.0000)
       1-108.5223       2 -34.9639
 
 
 
 E-fermi :   3.5471     XC(G=0): -10.9348     alpha+bet :-13.1194


 k-point     1 :       0.1250    0.1250    0.1250
  band No.  band energies     occupation 
      1     -13.5971      2.00000
      2       2.4102      2.00000
      3       3.2552      2.00000
      4       3.2552      2.00000
      5       8.6989      0.00000
      6      17.3087      0.00000
      7      19.3180      0.00000
      8      19.3180      0.00000
      9      23.5298      0.00000
     10      23.5298      0.00000
     11      24.8624      0.00000
     12      27.2580      0.00000
     13      28.6800      0.00000
     14      28.6800      0.00000
     15      38.8919      0.00000
     16      40.7987      0.00000

 k-point     2 :       0.3750    0.1250    0.1250
  band No.  band energies     occupation 
      1     -12.9480      2.00000
      2       0.2545      2.00000
      3       2.4018      2.00000
      4       2.9618      2.00000
      5      11.1174      0.00000
      6      15.2396      0.00000
      7      18.6170      0.00000
      8      20.2909      0.00000
      9      22.1143      0.00000
     10      24.3296      0.00000
     11      26.4079      0.00000
     12      31.0598      0.00000
     13      32.3141      0.00000
     14      33.2066      0.00000
     15      35.5737      0.00000
     16      38.8454      0.00000

 k-point     3 :      -0.3750    0.1250    0.1250
  band No.  band energies     occupation 
      1     -12.5144      2.00000
      2      -0.8668      2.00000
      3       2.2531      2.00000
      4       2.6250      2.00000
      5      11.7229      0.00000
      6      15.4170      0.00000
      7      17.9102      0.00000
      8      19.7212      0.00000
      9      23.6977      0.00000
     10      25.9470      0.00000
     11      26.0237      0.00000
     12      32.2853      0.00000
     13      32.8704      0.00000
     14      33.2391      0.00000
     15      35.7936      0.00000
     16      37.5020      0.00000

 k-point     4 :      -0.1250    0.1250    0.1250
  band No.  band energies     occupation 
      1     -13.2355      2.00000
      2       1.1356      2.00000
      3       2.8887      2.00000
      4       2.8920      2.00000
      5      10.2859      0.00000
      6      15.4960      0.00000
      7      19.4180      0.00000
      8      19.9052      0.00000
      9      21.0701      0.00000
     10      24.9108      0.00000
     11      26.8691      0.00000
     12      29.9507      0.00000
     13      30.2581      0.00000
     14      30.9817      0.00000
     15      37.1775      0.00000
     16      38.9492      0.00000

 k-point     5 :       0.3750    0.3750    0.1250
  band No.  band energies     occupation 
      1     -12.7135      2.00000
      2       0.0714      2.00000
      3       2.2027      2.00000
      4       2.4335      2.00000
      5      12.2136      0.00000
      6      13.9070      0.00000
      7      17.1602      0.00000
      8      20.7794      0.00000
      9      21.2351      0.00000
     10      27.0832      0.00000
     11      30.1454      0.00000
     12      30.3987      0.00000
     13      32.3278      0.00000
     14      34.8180      0.00000
     15      36.4648      0.00000
     16      37.8683      0.00000

 k-point     6 :      -0.3750    0.3750    0.1250
  band No.  band energies     occupation 
      1     -12.3042      2.00000
      2      -0.0421      2.00000
      3       0.9516      2.00000
      4       2.0255      2.00000
      5      13.7576      0.00000
      6      14.7662      0.00000
      7      15.5607      0.00000
      8      19.5464      0.00000
      9      22.9907      0.00000
     10      26.4441      0.00000
     11      29.9743      0.00000
     12      31.3990      0.00000
     13      32.6676      0.00000
     14      36.3331      0.00000
     15      38.8806      0.00000
     16      41.0855      0.00000

 k-point     7 :      -0.1250    0.3750    0.1250
  band No.  band energies     occupation 
      1     -12.5591      2.00000
      2      -0.2467      2.00000
      3       1.6892      2.00000
      4       2.5237      2.00000
      5      12.5828      0.00000
      6      14.7885      0.00000
      7      16.9314      0.00000
      8      20.1173      0.00000
      9      22.6961      0.00000
     10      25.3546      0.00000
     11      28.8627      0.00000
     12      31.6298      0.00000
     13      32.2327      0.00000
     14      34.8813      0.00000
     15      35.5235      0.00000
     16      41.0061      0.00000

 k-point     8 :      -0.3750   -0.3750    0.1250
  band No.  band energies     occupation 
      1     -12.3400      2.00000
      2      -0.4043      2.00000
      3       1.6876      2.00000
      4       2.1411      2.00000
      5      12.8529      0.00000
      6      13.4856      0.00000
      7      16.0076      0.00000
      8      21.4724      0.00000
      9      21.4846      0.00000
     10      28.9141      0.00000
     11      29.3909      0.00000
     12      31.9632      0.00000
     13      32.6596      0.00000
     14      37.7932      0.00000
     15      38.1688      0.00000
     16      41.0965      0.00000

 k-point     9 :       0.3750    0.3750    0.3750
  band No.  band energies     occupation 
      1     -12.7498      2.00000
      2      -0.6001      2.00000
      3       2.8188      2.00000
      4       2.8188      2.00000
      5      10.9291      0.00000
      6      15.4304      0.00000
      7      19.5244      0.00000
      8      19.5244      0.00000
      9      24.0699      0.00000
     10      24.4416      0.00000
     11      24.4416      0.00000
     12      31.8984      0.00000
     13      33.2101      0.00000
     14      33.2101      0.00000
     15      36.8391      0.00000
     16      36.8391      0.00000

 k-point    10 :      -0.3750    0.3750    0.3750
  band No.  band energies     occupation 
      1     -12.3875      2.00000
      2      -0.2835      2.00000
      3       1.0570      2.00000
      4       2.4938      2.00000
      5      13.0729      0.00000
      6      15.2308      0.00000
      7      16.1213      0.00000
      8      20.4265      0.00000
      9      22.5102      0.00000
     10      25.5489      0.00000
     11      29.0749      0.00000
     12      31.6134      0.00000
     13      32.0362      0.00000
     14      35.3636      0.00000
     15      37.2374      0.00000
     16      40.1100      0.00000


--------------------------------------------------------------------------------------------------------


 soft charge-density along one line, spin component           1
         0         1         2         3         4         5         6         7         8         9
 total charge-density along one line
 
 pseudopotential strength for first ion, spin component:           1
 25.191  -0.005  -0.000  -0.000  -0.000   0.000   0.000   0.000
 -0.005   0.001  -0.000  -0.000  -0.000  -0.000  -0.000  -0.000
 -0.000  -0.000  -8.633   0.000   0.000   0.013   0.000   0.000
 -0.000  -0.000   0.000  -8.633   0.000   0.000   0.013   0.000
 -0.000  -0.000   0.000   0.000  -8.633   0.000   0.000   0.013
  0.000  -0.000   0.013   0.000   0.000   0.018   0.000   0.000
  0.000  -0.000   0.000   0.013   0.000   0.000   0.018   0.000
  0.000  -0.000   0.000   0.000   0.013   0.000   0.000   0.018
 total augmentation occupancy for first ion, spin component:           1
  1.787   2.134   0.000   0.000   0.000   0.000   0.000   0.000
  2.134   4.107   0.000   0.000   0.000   0.000   0.000   0.000
  0.000   0.000   1.497   0.000  -0.000  -0.994  -0.000   0.000
  0.000   0.000   0.000   1.497  -0.000  -0.000  -0.994   0.000
  0.000   0.000  -0.000  -0.000   1.497   0.000   0.000  -0.994
  0.000   0.000  -0.994  -0.000   0.000   0.722   0.000  -0.000
  0.000   0.000  -0.000  -0.994   0.000   0.000   0.722  -0.000
  0.000   0.000   0.000   0.000  -0.994   0.000  -0.000   0.722


------------------------ aborting loop because EDIFF is reached ----------------------------------------


    CHARGE:  cpu time    0.0110: real time    0.0105
    FORLOC:  cpu time    0.0000: real time    0.0002
    FORNL :  cpu time    0.0060: real time    0.0062
    STRESS:  cpu time    0.0540: real time    0.0547
    FORCOR:  cpu time    0.0040: real time    0.0034
    FORHAR:  cpu time    0.0000: real time    0.0008
    MIXING:  cpu time    0.0010: real time    0.0006
    OFIELD:  cpu time    0.0000: real time    0.0000

  FORCE on cell =-STRESS in cart. coord.  units (eV):
  Direction    XX          YY          ZZ          XY          YZ          ZX
  --------------------------------------------------------------------------------------
  Alpha Z    15.79326    15.79326    15.79326
  Ewald    -118.15107  -118.15107  -118.15107    -0.00000    -0.00000     0.00000
  Hartree    47.26714    47.26715    47.26715     0.00000     0.00000     0.00000
  E(xc)     -36.93328   -36.93328   -36.93328    -0.00000    -0.00000    -0.00000
  Local     -89.04767   -89.04767   -89.04769    -0.00000     0.00000    -0.00000
  n-local    -9.10215    -9.31464   -10.44834     0.22698     0.47597    -1.15406
  augment     0.83084     0.83085     0.83085    -0.00000    -0.00000    -0.00000
  Kinetic   185.72960   188.74935   194.58955     0.68030    -1.76861     4.00202
  Fock        0.00000     0.00000     0.00000     0.00000     0.00000     0.00000
  -------------------------------------------------------------------------------------
  Total      -0.17298    -0.17298    -0.17298    -0.00000     0.00000     0.00000
  in kB     -14.37529   -14.37529   -14.37530    -0.00000     0.00000     0.00000
  external pressure =      -14.38 kB  Pullay stress =        0.00 kB


 VOLUME and BASIS-vectors are now :
 -----------------------------------------------------------------------------
  energy-cutoff  :      900.00
  volume of cell :       19.28
      direct lattice vectors                 reciprocal lattice vectors
     3.009788000  0.000000000  0.000000000     0.332249315 -0.191824221 -0.135640193
     1.504894000  2.606553000  0.000000000     0.000000000  0.383648443 -0.135640193
     1.504894000  0.868851000  2.457482000     0.000000000  0.000000000  0.406920580

  length of vectors
     3.009788000  3.009788114  3.009788330     0.406920632  0.406920619  0.406920580


 FORCES acting on ions
    electron-ion (+dipol)            ewald-force                    non-local-force                 convergence-correction
 -----------------------------------------------------------------------------------------------
   0.751E-12 0.783E-12 0.376E-12   0.522E-15 -.592E-15 -.130E-15   -.670E-24 -.296E-25 0.178E-24   0.375E-14 0.742E-14 -.239E-14
   -.171E-14 0.331E-15 -.709E-15   -.124E-14 0.371E-15 0.144E-15   0.401E-24 -.120E-23 -.265E-24   0.128E-16 -.249E-16 -.867E-17
 -----------------------------------------------------------------------------------------------
   0.749E-12 0.783E-12 0.376E-12   -.716E-15 -.221E-15 0.145E-16   -.269E-24 -.123E-23 -.872E-25   0.377E-14 0.740E-14 -.240E-14
 
 
 POSITION                                       TOTAL-FORCE (eV/Angst)
 -----------------------------------------------------------------------------------
      3.00979      1.73770      1.22874         0.000000     -0.000000     -0.000000
      0.00000      0.00000      0.00000        -0.000000      0.000000      0.000000
 -----------------------------------------------------------------------------------
    total drift:                                0.000000      0.000000      0.000000


--------------------------------------------------------------------------------------------------------



  FREE ENERGIE OF THE ION-ELECTRON SYSTEM (eV)
  ---------------------------------------------------
  free  energy   TOTEN  =       -11.91917285 eV

  energy  without entropy=      -11.91917285  energy(sigma->0) =      -11.91917285
 


--------------------------------------------------------------------------------------------------------


    POTLOK:  cpu time    0.0070: real time    0.0072


--------------------------------------------------------------------------------------------------------


     LOOP+:  cpu time    1.4568: real time    1.5015
    4ORBIT:  cpu time    0.0000: real time    0.0000

 total amount of memory used by VASP on root node    34446. kBytes
========================================================================

   base      :      30000. kBytes
   nonl-proj :       2568. kBytes
   fftplans  :        291. kBytes
   grid      :       1372. kBytes
   one-center:         16. kBytes
   wavefun   :        199. kBytes
 
  
  
 General timing and accounting informations for this job:
 ========================================================
  
                  Total CPU time used (sec):        2.382
                            User time (sec):        1.910
                          System time (sec):        0.472
                         Elapsed time (sec):        2.621
  
                   Maximum memory used (kb):       63336.
                   Average memory used (kb):           0.
  
                          Minor page faults:        41466
                          Major page faults:            6
                 Voluntary context switches:         1097
