# ['Ni']

28 atoms
1 atom types

    0.0000    13.0367 xlo xhi
    0.0000    22.5802 ylo yhi
    0.0000   149.0219 zlo zhi

    0.0000     0.0000     0.0000 xy xz yz

Atoms

1 1     0.0000     0.0000     0.0000
2 1     6.5184    11.2901     0.0000
3 1     6.5184     3.7634    10.6445
4 1     0.0000    15.0535    10.6445
5 1     0.0000     7.5267    21.2888
6 1     6.5184    18.8169    21.2888
7 1     0.0000     0.0000    31.9333
8 1     6.5184    11.2901    31.9333
9 1     6.5184     3.7634    42.5777
10 1     0.0000    15.0535    42.5777
11 1     0.0000     7.5267    53.2221
12 1     6.5184    18.8169    53.2221
13 1     0.0000     0.0000    63.8665
14 1     6.5184    11.2901    63.8665
15 1     0.0000     7.5267    74.5110
16 1     6.5184    18.8169    74.5110
17 1     0.0000     0.0000    85.1555
18 1     6.5184    11.2901    85.1555
19 1     6.5184     3.7634    95.7998
20 1     0.0000    15.0535    95.7998
21 1     0.0000     7.5267   106.4443
22 1     6.5184    18.8169   106.4443
23 1     0.0000     0.0000   117.0886
24 1     6.5184    11.2901   117.0886
25 1     6.5184     3.7634   127.7331
26 1     0.0000    15.0535   127.7331
27 1     0.0000     7.5267   138.3775
28 1     6.5184    18.8169   138.3775
