# ['Ni']

28 atoms
1 atom types

    0.0000     2.3568 xlo xhi
    0.0000     4.0821 ylo yhi
    0.0000    26.9404 zlo zhi

    0.0000     0.0000     0.0000 xy xz yz

Atoms

1 1     0.0000     0.0000     0.0000
2 1     1.1784     2.0410     0.0000
3 1     1.1784     0.6803     1.9243
4 1     0.0000     2.7214     1.9243
5 1     0.0000     1.3607     3.8486
6 1     1.1784     3.4017     3.8486
7 1     0.0000     0.0000     5.7730
8 1     1.1784     2.0410     5.7730
9 1     1.1784     0.6803     7.6973
10 1     0.0000     2.7214     7.6973
11 1     0.0000     1.3607     9.6216
12 1     1.1784     3.4017     9.6216
13 1     0.0000     0.0000    11.5459
14 1     1.1784     2.0410    11.5459
15 1     0.0000     1.3607    13.4702
16 1     1.1784     3.4017    13.4702
17 1     0.0000     0.0000    15.3945
18 1     1.1784     2.0410    15.3945
19 1     1.1784     0.6803    17.3188
20 1     0.0000     2.7214    17.3188
21 1     0.0000     1.3607    19.2432
22 1     1.1784     3.4017    19.2432
23 1     0.0000     0.0000    21.1675
24 1     1.1784     2.0410    21.1675
25 1     1.1784     0.6803    23.0918
26 1     0.0000     2.7214    23.0918
27 1     0.0000     1.3607    25.0161
28 1     1.1784     3.4017    25.0161
