LAMMPS (11 Aug 2017)
# ---- initialize simulations
clear
units metal
dimension 3
boundary p p p
atom_style atomic
atom_modify map array
# ---- create atoms
read_data /home/sullberg/repos/pypospack/examples/Ni__eam__born_exp_rose/01_preconditioning_3.5NN/rank_0/Ni_hcp.lmps_min_all/lammps.structure
  triclinic box = (0 0 0) to (3.6 6.2354 5.8788) with tilt (0 0 0)
  1 by 1 by 1 MPI processor grid
  reading atoms ...
  4 atoms
# ---- define interatomic potential
include potential.mod
mass 1 58.6934

group Ni type 1
4 atoms in group Ni

pair_style eam/alloy
pair_coeff * * /home/sullberg/repos/pypospack/examples/Ni__eam__born_exp_rose/01_preconditioning_3.5NN/rank_0/Ni_hcp.lmps_min_all/Ni.eam.alloy Ni

neighbor 1.0 bin
neigh_modify every 1 delay 0 check yes
# ---- define settings
compute eng all pe/atom
compute eatoms all reduce sum c_eng
# ---- run minimization
reset_timestep 0
fix 1 all box/relax aniso 0.0 vmax 0.001
thermo 10
thermo_style custom step pe xhi xlo yhi ylo zhi xy xz yz press pxx pyy pzz pxy pxz pyz c_eatoms
min_style cg
minimize 1e-25 1e-25 5000 10000
Neighbor list info ...
  update every 1 steps, delay 0 steps, check yes
  max neighbors/atom: 2000, page size: 100000
  master list distance cutoff = 11
  ghost atom cutoff = 11
  binsize = 5.5, bins = 1 2 2
  1 neighbor lists, perpetual/occasional/extra = 1 0 0
  (1) pair eam/alloy, perpetual
      attributes: half, newton on
      pair build: half/bin/newton/tri
      stencil: half/bin/3d/newton/tri
      bin: standard
Per MPI rank memory allocation (min/avg/max) = 4.231 | 4.231 | 4.231 Mbytes
Step PotEng Xhi Xlo Yhi Ylo Zhi Xy Xz Yz Press Pxx Pyy Pzz Pxy Pxz Pyz c_eatoms 
       0   -6.1604821          3.6            0       6.2354            0       5.8788            0            0            0      -123476   -123434.53   -123433.61   -123559.86 7.2855941e-12 -5.3619203e-12 -1.4899243e-11   -6.1604821 
      10   -6.4717069    3.5820185  0.017981504    6.2042553  0.031144732     5.849406            0            0            0   -131225.08   -131180.16   -131179.21   -131315.85 -1.4152925e-11 1.6630212e-11 -1.6393762e-11   -6.4717069 
      20   -6.7956977    3.5640375  0.035962485    6.1731114  0.062288564     5.820012            0            0            0   -139334.22    -139285.7   -139284.72   -139432.25 1.8686399e-12 -4.953729e-12 9.0700074e-12   -6.7956977 
      30   -7.1325901     3.546057  0.053942959    6.1419685  0.093431523     5.790618            0            0            0   -147794.03   -147741.75   -147740.75    -147899.6 -4.7189922e-12 -1.731167e-11 -2.1034066e-11   -7.1325901 
      40   -7.4824637    3.5280771  0.071922943    6.1108264   0.12457364     5.761224            0            0            0   -156603.85   -156547.55   -156546.54   -156717.46 -4.9982387e-11 -1.7958363e-12 -4.9121486e-11   -7.4824637 
      50    -7.845335    3.5100977  0.089902322    6.0796853   0.15571471      5.73183            0            0            0   -165743.84   -165682.86   -165681.83   -165866.83 -2.3434835e-13 -1.3258773e-11 3.8262664e-11    -7.845335 
      60   -8.2211456     3.492119   0.10788103    6.0485454   0.18685463     5.702436            0            0            0   -175198.41   -175132.52   -175131.48   -175331.22 4.2931799e-12 -2.4972361e-11 -5.4903006e-12   -8.2211456 
      70   -8.6097569    3.4741409   0.12585907    6.0174066   0.21799339     5.673042            0            0            0   -184931.32   -184860.32   -184859.29   -185074.35 2.2069321e-11 1.4608623e-11 7.1100557e-11   -8.6097569 
      80   -9.0109317    3.4561635   0.14383646     5.986269   0.24913105     5.643648            0            0            0   -194916.31   -194840.32    -194839.3    -195069.3 -1.8536923e-11 8.1875255e-12 -3.0454031e-11   -9.0109317 
      90   -9.4243261    3.4381867   0.16181333    5.9551322   0.28026782     5.614254            0            0            0    -205090.4   -205009.61    -205008.6   -205252.98 1.8391416e-11 1.881658e-11 -2.9449296e-11   -9.4243261 
     100   -9.8494682    3.4202103   0.17978973    5.9239962   0.31140377      5.58486            0            0            0   -215404.58   -215319.01   -215318.03   -215576.69 -1.813189e-11 -8.3845749e-12 2.3842475e-11   -9.8494682 
     110   -10.285744    3.4022343   0.19776569     5.892861   0.34253897     5.555466            0            0            0   -225786.68    -225696.5   -225695.57   -225967.95 3.2625322e-12 -5.408737e-11 1.8714775e-11   -10.285744 
     120   -10.732379    3.3842587   0.21574129    5.8617264   0.37367357     5.526072            0            0            0   -236122.88    -236028.5   -236027.63   -236312.52 1.9696318e-11 4.3591403e-11 3.0380389e-11   -10.732379 
     130   -11.188419    3.3662834   0.23371664    5.8305923   0.40480773     5.496678            0            0            0   -246321.51   -246223.75   -246222.96   -246517.81 2.7216977e-11 1.3977759e-11 6.6883175e-11   -11.188419 
     140   -11.652702    3.3483081   0.25169188    5.7994583   0.43594172     5.467284            0            0            0   -256233.01   -256132.42   -256131.73   -256434.88 -1.6698539e-11 -6.7316049e-11 -2.4078835e-11   -11.652702 
     150   -12.123832     3.330333   0.26966704    5.7683244   0.46707559      5.43789            0            0            0   -265688.25   -265585.26   -265584.69    -265894.8 -3.2744887e-11 -1.8369044e-11 1.9006569e-12   -12.123832 
     160   -12.600155    3.3123578   0.28764216    5.7371906   0.49820941     5.408496            0            0            0   -274495.48   -274390.76   -274390.33   -274705.34 -6.1436789e-12 6.3946593e-12 -9.5985791e-12   -12.600155 
     170   -13.079723    3.2943826   0.30561737    5.7060566   0.52934339     5.379102            0            0            0   -282409.69   -282304.84   -282304.59   -282619.64 1.1349024e-11 1.0249024e-11 7.9525573e-11   -13.079723 
     180   -13.560266    3.2764071   0.32359288    5.6749221   0.56047793     5.349708            0            0            0   -289162.86   -289059.47   -289059.43    -289369.7 9.1444447e-12 -6.1646182e-11 -5.4753164e-11   -13.560266 
     190   -14.039147    3.2584311   0.34156887    5.6437867    0.5916133     5.320314            0            0            0    -294412.6      -294312    -294312.2   -294613.59 1.614388e-11 -4.8119607e-12 8.2208114e-11   -14.039147 
     200   -14.513321    3.2404546   0.35954537    5.6126504    0.6227496      5.29092            0            0            0   -297769.82   -297673.28   -297673.76   -297962.44 -3.3121568e-12 -6.173627e-11 -2.3940728e-11   -14.513321 
     210    -14.97929    3.2224774   0.37752262    5.5815128   0.65388722     5.261526            0            0            0   -298773.71   -298683.89    -298684.7   -298952.55 2.3413731e-11 9.3858201e-12 -7.8564729e-11    -14.97929 
     220   -15.433053    3.2044991   0.39550092    5.5503733   0.68502671     5.232132            0            0            0   -296889.45   -296808.73    -296809.9   -297049.72 8.9793166e-12 -2.7266102e-11 9.8244258e-11   -15.433053 
     230   -15.870041    3.1865194   0.41348064    5.5192313   0.71616868     5.202738            0            0            0   -291473.32   -291404.86   -291406.44   -291608.67 -5.2036781e-11 -2.6081455e-12 5.8241883e-11   -15.870041 
     240   -16.285066    3.1685375   0.43146245    5.4880857   0.74731434     5.173344            0            0            0   -281790.08   -281739.37   -281741.42   -281889.45 4.407858e-12 4.2338864e-11 8.9192188e-11   -16.285066 
     250   -16.672248    3.1505526   0.44944737    5.4569346   0.77846544      5.14395            0            0            0   -266983.31    -266954.7   -266957.27   -267037.97 1.820714e-11 4.3299044e-11 1.9453503e-10   -16.672248 
     260   -17.024925    3.1325635   0.46743647    5.4257761   0.80962388     5.114556            0            0            0   -246040.78   -246037.91   -246041.04   -246043.38 3.362269e-11 -8.1151993e-12 3.9876913e-11   -17.024925 
     270   -17.335579    3.1145685   0.48543154    5.3946072   0.84079276     5.085162            0            0            0   -217755.12   -217782.89   -217786.62   -217695.84 -9.6287534e-12 2.221508e-11 1.5465423e-10   -17.335579 
     280   -17.595673    3.0965688   0.50343116    5.3634303   0.87196971    5.0557756            0            0            0    -180765.3   -180827.92   -180832.27    -180635.7 -6.6319151e-11 -9.0147613e-11 -1.7931061e-10   -17.595673 
     290   -17.795618    3.0785694   0.52143064    5.3322533   0.90314671    5.0264151            0            0            0   -133669.98   -133770.87    -133775.8   -133463.26 2.6485804e-11 -5.4027559e-11 1.3920222e-10   -17.795618 
     300   -17.924772    3.0605702   0.53942976    5.3010763   0.93432371    4.9971119            0            0            0   -74401.752   -74539.063   -74544.377   -74121.817 -2.7314748e-11 -3.5261161e-11 1.5167485e-11   -17.924772 
     310   -17.971367    3.0425734   0.55742661    5.2698993   0.96550071    4.9681546            0            0            0   -1313.5934   -1432.6826   -1436.8355   -1071.2622 -1.1621829e-11 -1.9124916e-11 -3.0631683e-12   -17.971367 
     320    -17.97138    3.0421549   0.55784508    5.2691754    0.9662246    4.9681641            0            0            0 -0.00018777264 -3.5130609e-06 0.0011938857 -0.0017536906 -1.721087e-12 -4.3043195e-11 2.9673983e-11    -17.97138 
     329    -17.97138    3.0421549   0.55784509    5.2691754   0.96622459    4.9681641            0            0            0 8.2488268e-09 7.7785374e-09 9.2088002e-09 7.7591429e-09 1.9758459e-11 6.7825747e-11  2.72551e-10    -17.97138 
Loop time of 0.0225091 on 1 procs for 329 steps with 4 atoms

96.5% CPU use with 1 MPI tasks x no OpenMP threads

Minimization stats:
  Stopping criterion = energy tolerance
  Energy initial, next-to-last, final = 
        -6.16048214295      -17.971380183      -17.971380183
  Force two-norm initial, final = 17.6152 5.77991e-13
  Force max component initial, final = 10.1771 3.61264e-13
  Final line search alpha, max atom move = 1 3.61264e-13
  Iterations, force evaluations = 329 348

MPI task timing breakdown:
Section |  min time  |  avg time  |  max time  |%varavg| %total
---------------------------------------------------------------
Pair    | 0.015121   | 0.015121   | 0.015121   |   0.0 | 67.18
Neigh   | 0.00022888 | 0.00022888 | 0.00022888 |   0.0 |  1.02
Comm    | 0.0016189  | 0.0016189  | 0.0016189  |   0.0 |  7.19
Output  | 0.00045514 | 0.00045514 | 0.00045514 |   0.0 |  2.02
Modify  | 0          | 0          | 0          |   0.0 |  0.00
Other   |            | 0.005085   |            |       | 22.59

Nlocal:    4 ave 4 max 4 min
Histogram: 1 0 0 0 0 0 0 0 0 0
Nghost:    1424 ave 1424 max 1424 min
Histogram: 1 0 0 0 0 0 0 0 0 0
Neighs:    848 ave 848 max 848 min
Histogram: 1 0 0 0 0 0 0 0 0 0

Total # of neighbors = 848
Ave neighs/atom = 212
Neighbor list builds = 5
Dangerous builds = 0
# ---- define output variables ----
variable natoms equal "count(all)"
variable tot_energy equal "c_eatoms"
variable a11 equal "xhi-xlo"
variable a22 equal "yhi-ylo"
variable a33 equal "zhi-zlo"
variable tilt_xy equal "xy"
variable tilt_xz equal "xz"
variable tilt_yz equal "yz"
variable tot_press equal "press"
variable press_xx equal "pxx"
variable press_yy equal "pyy"
variable press_zz equal "pzz"
variable press_xy equal "pxy"
variable press_xz equal "pxz"
variable press_yz equal "pyz"

# ---- output ----
print "pypospack:output_section:begin"
pypospack:output_section:begin
print "tot_energy = ${tot_energy}"
tot_energy = -17.9713801829827
print "num_atoms = ${natoms}"
num_atoms = 4
print "a11 = ${a11}"
a11 = 2.48430981742453
print "a22 = ${a22}"
a22 = 4.30295082552158
print "a33 = ${a33}"
a33 = 4.05752821264872
print "a12 = ${tilt_xy}"
a12 = 0
print "a13 = ${tilt_xz}"
a13 = 0
print "a23 = ${tilt_yz}"
a23 = 0
print "tot_press = ${tot_press}"
tot_press = 8.24882683502951e-09
print "pxx = ${press_xx}"
pxx = 7.77853738734302e-09
print "pyy = ${press_yy}"
pyy = 9.20880024852652e-09
print "pzz = ${press_zz}"
pzz = 7.75914286921896e-09
print "pxy = ${press_xy}"
pxy = 1.97584594455244e-11
print "pxz = ${press_xz}"
pxz = 6.78257466592963e-11
print "pyz = ${press_yz}"
pyz = 2.72550999999512e-10
print "pypospack:output_section:done"
pypospack:output_section:done
print "pypospack:lammps_sim:done"
pypospack:lammps_sim:done
Total wall time: 0:00:00
