# ['Al']

107 atoms
1 atom types

    0.0000    11.4171 xlo xhi
    0.0000    11.4171 ylo yhi
    0.0000    11.4171 zlo zhi

    0.0000    -0.0000    -0.0000 xy xz yz

Atoms

1 1     1.9029     1.9029     0.0000
2 1     1.9029     0.0000     1.9029
3 1     0.0000     1.9029     1.9029
4 1     0.0000     0.0000     3.8057
5 1     1.9029     1.9029     3.8057
6 1     1.9029     0.0000     5.7086
7 1     0.0000     1.9029     5.7086
8 1     0.0000     0.0000     7.6114
9 1     1.9029     1.9029     7.6114
10 1     1.9029     0.0000     9.5142
11 1     0.0000     1.9029     9.5142
12 1     0.0000     3.8057     0.0000
13 1     1.9029     5.7086     0.0000
14 1     1.9029     3.8057     1.9029
15 1     0.0000     5.7086     1.9029
16 1     0.0000     3.8057     3.8057
17 1     1.9029     5.7086     3.8057
18 1     1.9029     3.8057     5.7086
19 1     0.0000     5.7086     5.7086
20 1     0.0000     3.8057     7.6114
21 1     1.9029     5.7086     7.6114
22 1     1.9029     3.8057     9.5142
23 1     0.0000     5.7086     9.5142
24 1     0.0000     7.6114     0.0000
25 1     1.9029     9.5142     0.0000
26 1     1.9029     7.6114     1.9029
27 1     0.0000     9.5142     1.9029
28 1     0.0000     7.6114     3.8057
29 1     1.9029     9.5142     3.8057
30 1     1.9029     7.6114     5.7086
31 1     0.0000     9.5142     5.7086
32 1     0.0000     7.6114     7.6114
33 1     1.9029     9.5142     7.6114
34 1     1.9029     7.6114     9.5142
35 1     0.0000     9.5142     9.5142
36 1     3.8057     0.0000     0.0000
37 1     5.7086     1.9029     0.0000
38 1     5.7086     0.0000     1.9029
39 1     3.8057     1.9029     1.9029
40 1     3.8057     0.0000     3.8057
41 1     5.7086     1.9029     3.8057
42 1     5.7086     0.0000     5.7086
43 1     3.8057     1.9029     5.7086
44 1     3.8057     0.0000     7.6114
45 1     5.7086     1.9029     7.6114
46 1     5.7086     0.0000     9.5142
47 1     3.8057     1.9029     9.5142
48 1     3.8057     3.8057     0.0000
49 1     5.7086     5.7086     0.0000
50 1     5.7086     3.8057     1.9029
51 1     3.8057     5.7086     1.9029
52 1     3.8057     3.8057     3.8057
53 1     5.7086     5.7086     3.8057
54 1     5.7086     3.8057     5.7086
55 1     3.8057     5.7086     5.7086
56 1     3.8057     3.8057     7.6114
57 1     5.7086     5.7086     7.6114
58 1     5.7086     3.8057     9.5142
59 1     3.8057     5.7086     9.5142
60 1     3.8057     7.6114     0.0000
61 1     5.7086     9.5142     0.0000
62 1     5.7086     7.6114     1.9029
63 1     3.8057     9.5142     1.9029
64 1     3.8057     7.6114     3.8057
65 1     5.7086     9.5142     3.8057
66 1     5.7086     7.6114     5.7086
67 1     3.8057     9.5142     5.7086
68 1     3.8057     7.6114     7.6114
69 1     5.7086     9.5142     7.6114
70 1     5.7086     7.6114     9.5142
71 1     3.8057     9.5142     9.5142
72 1     7.6114     0.0000     0.0000
73 1     9.5142     1.9029     0.0000
74 1     9.5142     0.0000     1.9029
75 1     7.6114     1.9029     1.9029
76 1     7.6114     0.0000     3.8057
77 1     9.5142     1.9029     3.8057
78 1     9.5142     0.0000     5.7086
79 1     7.6114     1.9029     5.7086
80 1     7.6114     0.0000     7.6114
81 1     9.5142     1.9029     7.6114
82 1     9.5142     0.0000     9.5142
83 1     7.6114     1.9029     9.5142
84 1     7.6114     3.8057     0.0000
85 1     9.5142     5.7086     0.0000
86 1     9.5142     3.8057     1.9029
87 1     7.6114     5.7086     1.9029
88 1     7.6114     3.8057     3.8057
89 1     9.5142     5.7086     3.8057
90 1     9.5142     3.8057     5.7086
91 1     7.6114     5.7086     5.7086
92 1     7.6114     3.8057     7.6114
93 1     9.5142     5.7086     7.6114
94 1     9.5142     3.8057     9.5142
95 1     7.6114     5.7086     9.5142
96 1     7.6114     7.6114     0.0000
97 1     9.5142     9.5142     0.0000
98 1     9.5142     7.6114     1.9029
99 1     7.6114     9.5142     1.9029
100 1     7.6114     7.6114     3.8057
101 1     9.5142     9.5142     3.8057
102 1     9.5142     7.6114     5.7086
103 1     7.6114     9.5142     5.7086
104 1     7.6114     7.6114     7.6114
105 1     9.5142     9.5142     7.6114
106 1     9.5142     7.6114     9.5142
107 1     7.6114     9.5142     9.5142
