# ['Ni']

107 atoms
1 atom types

    0.0000    10.9341 xlo xhi
    0.0000    10.9341 ylo yhi
    0.0000    10.9341 zlo zhi

    0.0000    -0.0000    -0.0000 xy xz yz

Atoms

1 1     1.8224     1.8224     0.0000
2 1     1.8224     0.0000     1.8224
3 1     0.0000     1.8224     1.8224
4 1     0.0000     0.0000     3.6447
5 1     1.8224     1.8224     3.6447
6 1     1.8224     0.0000     5.4671
7 1     0.0000     1.8224     5.4671
8 1     0.0000     0.0000     7.2894
9 1     1.8224     1.8224     7.2894
10 1     1.8224     0.0000     9.1118
11 1     0.0000     1.8224     9.1118
12 1     0.0000     3.6447     0.0000
13 1     1.8224     5.4671     0.0000
14 1     1.8224     3.6447     1.8224
15 1     0.0000     5.4671     1.8224
16 1     0.0000     3.6447     3.6447
17 1     1.8224     5.4671     3.6447
18 1     1.8224     3.6447     5.4671
19 1     0.0000     5.4671     5.4671
20 1     0.0000     3.6447     7.2894
21 1     1.8224     5.4671     7.2894
22 1     1.8224     3.6447     9.1118
23 1     0.0000     5.4671     9.1118
24 1     0.0000     7.2894     0.0000
25 1     1.8224     9.1118     0.0000
26 1     1.8224     7.2894     1.8224
27 1     0.0000     9.1118     1.8224
28 1     0.0000     7.2894     3.6447
29 1     1.8224     9.1118     3.6447
30 1     1.8224     7.2894     5.4671
31 1     0.0000     9.1118     5.4671
32 1     0.0000     7.2894     7.2894
33 1     1.8224     9.1118     7.2894
34 1     1.8224     7.2894     9.1118
35 1     0.0000     9.1118     9.1118
36 1     3.6447     0.0000     0.0000
37 1     5.4671     1.8224     0.0000
38 1     5.4671     0.0000     1.8224
39 1     3.6447     1.8224     1.8224
40 1     3.6447     0.0000     3.6447
41 1     5.4671     1.8224     3.6447
42 1     5.4671     0.0000     5.4671
43 1     3.6447     1.8224     5.4671
44 1     3.6447     0.0000     7.2894
45 1     5.4671     1.8224     7.2894
46 1     5.4671     0.0000     9.1118
47 1     3.6447     1.8224     9.1118
48 1     3.6447     3.6447     0.0000
49 1     5.4671     5.4671     0.0000
50 1     5.4671     3.6447     1.8224
51 1     3.6447     5.4671     1.8224
52 1     3.6447     3.6447     3.6447
53 1     5.4671     5.4671     3.6447
54 1     5.4671     3.6447     5.4671
55 1     3.6447     5.4671     5.4671
56 1     3.6447     3.6447     7.2894
57 1     5.4671     5.4671     7.2894
58 1     5.4671     3.6447     9.1118
59 1     3.6447     5.4671     9.1118
60 1     3.6447     7.2894     0.0000
61 1     5.4671     9.1118     0.0000
62 1     5.4671     7.2894     1.8224
63 1     3.6447     9.1118     1.8224
64 1     3.6447     7.2894     3.6447
65 1     5.4671     9.1118     3.6447
66 1     5.4671     7.2894     5.4671
67 1     3.6447     9.1118     5.4671
68 1     3.6447     7.2894     7.2894
69 1     5.4671     9.1118     7.2894
70 1     5.4671     7.2894     9.1118
71 1     3.6447     9.1118     9.1118
72 1     7.2894     0.0000     0.0000
73 1     9.1118     1.8224     0.0000
74 1     9.1118     0.0000     1.8224
75 1     7.2894     1.8224     1.8224
76 1     7.2894     0.0000     3.6447
77 1     9.1118     1.8224     3.6447
78 1     9.1118     0.0000     5.4671
79 1     7.2894     1.8224     5.4671
80 1     7.2894     0.0000     7.2894
81 1     9.1118     1.8224     7.2894
82 1     9.1118     0.0000     9.1118
83 1     7.2894     1.8224     9.1118
84 1     7.2894     3.6447     0.0000
85 1     9.1118     5.4671     0.0000
86 1     9.1118     3.6447     1.8224
87 1     7.2894     5.4671     1.8224
88 1     7.2894     3.6447     3.6447
89 1     9.1118     5.4671     3.6447
90 1     9.1118     3.6447     5.4671
91 1     7.2894     5.4671     5.4671
92 1     7.2894     3.6447     7.2894
93 1     9.1118     5.4671     7.2894
94 1     9.1118     3.6447     9.1118
95 1     7.2894     5.4671     9.1118
96 1     7.2894     7.2894     0.0000
97 1     9.1118     9.1118     0.0000
98 1     9.1118     7.2894     1.8224
99 1     7.2894     9.1118     1.8224
100 1     7.2894     7.2894     3.6447
101 1     9.1118     9.1118     3.6447
102 1     9.1118     7.2894     5.4671
103 1     7.2894     9.1118     5.4671
104 1     7.2894     7.2894     7.2894
105 1     9.1118     9.1118     7.2894
106 1     9.1118     7.2894     9.1118
107 1     7.2894     9.1118     9.1118
