# ['Ni']

107 atoms
1 atom types

    0.0000     7.0176 xlo xhi
    0.0000     7.0176 ylo yhi
    0.0000     7.0176 zlo zhi

    0.0000    -0.0000    -0.0000 xy xz yz

Atoms

1 1     1.1696     1.1696     0.0000
2 1     1.1696     0.0000     1.1696
3 1     0.0000     1.1696     1.1696
4 1     0.0000     0.0000     2.3392
5 1     1.1696     1.1696     2.3392
6 1     1.1696     0.0000     3.5088
7 1     0.0000     1.1696     3.5088
8 1     0.0000     0.0000     4.6784
9 1     1.1696     1.1696     4.6784
10 1     1.1696     0.0000     5.8480
11 1     0.0000     1.1696     5.8480
12 1     0.0000     2.3392     0.0000
13 1     1.1696     3.5088     0.0000
14 1     1.1696     2.3392     1.1696
15 1     0.0000     3.5088     1.1696
16 1     0.0000     2.3392     2.3392
17 1     1.1696     3.5088     2.3392
18 1     1.1696     2.3392     3.5088
19 1     0.0000     3.5088     3.5088
20 1     0.0000     2.3392     4.6784
21 1     1.1696     3.5088     4.6784
22 1     1.1696     2.3392     5.8480
23 1     0.0000     3.5088     5.8480
24 1     0.0000     4.6784     0.0000
25 1     1.1696     5.8480     0.0000
26 1     1.1696     4.6784     1.1696
27 1     0.0000     5.8480     1.1696
28 1     0.0000     4.6784     2.3392
29 1     1.1696     5.8480     2.3392
30 1     1.1696     4.6784     3.5088
31 1     0.0000     5.8480     3.5088
32 1     0.0000     4.6784     4.6784
33 1     1.1696     5.8480     4.6784
34 1     1.1696     4.6784     5.8480
35 1     0.0000     5.8480     5.8480
36 1     2.3392     0.0000     0.0000
37 1     3.5088     1.1696     0.0000
38 1     3.5088     0.0000     1.1696
39 1     2.3392     1.1696     1.1696
40 1     2.3392     0.0000     2.3392
41 1     3.5088     1.1696     2.3392
42 1     3.5088     0.0000     3.5088
43 1     2.3392     1.1696     3.5088
44 1     2.3392     0.0000     4.6784
45 1     3.5088     1.1696     4.6784
46 1     3.5088     0.0000     5.8480
47 1     2.3392     1.1696     5.8480
48 1     2.3392     2.3392     0.0000
49 1     3.5088     3.5088     0.0000
50 1     3.5088     2.3392     1.1696
51 1     2.3392     3.5088     1.1696
52 1     2.3392     2.3392     2.3392
53 1     3.5088     3.5088     2.3392
54 1     3.5088     2.3392     3.5088
55 1     2.3392     3.5088     3.5088
56 1     2.3392     2.3392     4.6784
57 1     3.5088     3.5088     4.6784
58 1     3.5088     2.3392     5.8480
59 1     2.3392     3.5088     5.8480
60 1     2.3392     4.6784     0.0000
61 1     3.5088     5.8480     0.0000
62 1     3.5088     4.6784     1.1696
63 1     2.3392     5.8480     1.1696
64 1     2.3392     4.6784     2.3392
65 1     3.5088     5.8480     2.3392
66 1     3.5088     4.6784     3.5088
67 1     2.3392     5.8480     3.5088
68 1     2.3392     4.6784     4.6784
69 1     3.5088     5.8480     4.6784
70 1     3.5088     4.6784     5.8480
71 1     2.3392     5.8480     5.8480
72 1     4.6784     0.0000     0.0000
73 1     5.8480     1.1696     0.0000
74 1     5.8480     0.0000     1.1696
75 1     4.6784     1.1696     1.1696
76 1     4.6784     0.0000     2.3392
77 1     5.8480     1.1696     2.3392
78 1     5.8480     0.0000     3.5088
79 1     4.6784     1.1696     3.5088
80 1     4.6784     0.0000     4.6784
81 1     5.8480     1.1696     4.6784
82 1     5.8480     0.0000     5.8480
83 1     4.6784     1.1696     5.8480
84 1     4.6784     2.3392     0.0000
85 1     5.8480     3.5088     0.0000
86 1     5.8480     2.3392     1.1696
87 1     4.6784     3.5088     1.1696
88 1     4.6784     2.3392     2.3392
89 1     5.8480     3.5088     2.3392
90 1     5.8480     2.3392     3.5088
91 1     4.6784     3.5088     3.5088
92 1     4.6784     2.3392     4.6784
93 1     5.8480     3.5088     4.6784
94 1     5.8480     2.3392     5.8480
95 1     4.6784     3.5088     5.8480
96 1     4.6784     4.6784     0.0000
97 1     5.8480     5.8480     0.0000
98 1     5.8480     4.6784     1.1696
99 1     4.6784     5.8480     1.1696
100 1     4.6784     4.6784     2.3392
101 1     5.8480     5.8480     2.3392
102 1     5.8480     4.6784     3.5088
103 1     4.6784     5.8480     3.5088
104 1     4.6784     4.6784     4.6784
105 1     5.8480     5.8480     4.6784
106 1     5.8480     4.6784     5.8480
107 1     4.6784     5.8480     5.8480
