   4   4   0   0
  0.1064635E+02  0.3492102E-09  0.3492102E-09  0.3492102E-09  0.5000000E-15
  1.000000000000000E-004
  CAR 
 automatically generated by pyflamestk   
     33.74893600     -0.88660020  301      9.68811514      1.00000000
     -0.887  0.0000E+00  0.0000E+00  0.0000E+00  0.0000E+00
     -0.771  0.0000E+00  0.0000E+00  0.0000E+00  0.0000E+00
     -0.656  0.0000E+00  0.0000E+00  0.0000E+00  0.0000E+00
     -0.540 -0.5157E-29 -0.1830E-29 -0.5954E-30 -0.2113E-30
     -0.425 -0.4807E-25 -0.1836E-25 -0.5551E-26 -0.2120E-26
     -0.309 -0.2288E-21 -0.9402E-22 -0.2642E-22 -0.1086E-22
     -0.194 -0.5556E-18 -0.2457E-18 -0.6417E-19 -0.2837E-19
     -0.078 -0.6872E-15 -0.3270E-15 -0.7941E-16 -0.3779E-16
      0.037 -0.4175E-12 -0.2141E-12 -0.4828E-13 -0.2476E-13
      0.152 -0.1321E-09 -0.7293E-10 -0.1529E-10 -0.8445E-11
      0.268 -0.2102E-07 -0.1251E-07 -0.2442E-08 -0.1453E-08
      0.383 -0.1670E-05 -0.1073E-05 -0.1952E-06 -0.1253E-06
      0.499 -0.6519E-04 -0.4531E-04 -0.7722E-05 -0.5356E-05
      0.614 -0.1212E-02 -0.9152E-03 -0.1476E-03 -0.1110E-03
      0.730 -0.9888E-02 -0.8231E-02 -0.1289E-02 -0.1061E-02
      0.845 -0.2530E-01 -0.2505E-01 -0.4211E-02 -0.3953E-02
      0.961  0.5789E-01  0.3795E-01  0.2473E-02  0.4286E-03
      1.076  0.3522E+00  0.3168E+00  0.4314E-01  0.3700E-01
      1.192  0.4972E+00  0.5041E+00  0.1005E+00  0.9520E-01
      1.307  0.2351E+00  0.2714E+00  0.1277E+00  0.1265E+00
      1.422  0.4472E-02  0.1751E-01  0.1282E+00  0.1286E+00
      1.538 -0.2200E-01 -0.2368E-01  0.1257E+00  0.1258E+00
      1.653 -0.5223E-02 -0.6441E-02  0.1251E+00  0.1251E+00
      1.769 -0.4709E-03 -0.6367E-03  0.1250E+00  0.1250E+00
      1.884 -0.2157E-04 -0.3086E-04  0.1250E+00  0.1250E+00
      2.000 -0.9901E-04 -0.1078E-03  0.1250E+00  0.1250E+00
      2.115 -0.2139E-02 -0.2282E-02  0.1247E+00  0.1247E+00
      2.231 -0.2088E-01 -0.2181E-01  0.1223E+00  0.1222E+00
      2.346 -0.7260E-01 -0.7339E-01  0.1139E+00  0.1137E+00
      2.462  0.6988E-01  0.8051E-01  0.1220E+00  0.1230E+00
      2.577  0.8563E+00  0.8805E+00  0.2209E+00  0.2247E+00
      2.692  0.1515E+01  0.1516E+01  0.3958E+00  0.3997E+00
      2.808  0.9086E+00  0.8845E+00  0.5007E+00  0.5018E+00
      2.923  0.9343E-01  0.8228E-01  0.5115E+00  0.5113E+00
      3.039 -0.7420E-01 -0.7351E-01  0.5029E+00  0.5028E+00
      3.154 -0.2294E-01 -0.2198E-01  0.5003E+00  0.5003E+00
      3.270 -0.2503E-02 -0.2621E-02  0.5000E+00  0.5000E+00
      3.385 -0.1252E-02 -0.5328E-02  0.4999E+00  0.4994E+00
      3.501 -0.1342E-01 -0.3722E-01  0.4983E+00  0.4951E+00
      3.616 -0.6186E-01 -0.7193E-01  0.4912E+00  0.4868E+00
      3.731 -0.9225E-02  0.2691E+00  0.4901E+00  0.5178E+00
      3.847  0.6297E+00  0.1190E+01  0.5628E+00  0.6552E+00
      3.962  0.1466E+01  0.1429E+01  0.7321E+00  0.8202E+00
      4.078  0.1129E+01  0.5395E+00  0.8624E+00  0.8825E+00
      4.193  0.2181E+00 -0.7937E-02  0.8875E+00  0.8816E+00
      4.309 -0.9507E-01  0.1932E+00  0.8766E+00  0.9039E+00
      4.424 -0.5873E-01  0.4177E+00  0.8698E+00  0.9521E+00
      4.540  0.1137E+00  0.4999E+00  0.8829E+00  0.1010E+01
      4.655  0.4882E+00  0.1084E+01  0.9393E+00  0.1135E+01
      4.771  0.1102E+01  0.1325E+01  0.1066E+01  0.1288E+01
      4.886  0.1583E+01  0.8829E+00  0.1249E+01  0.1390E+01
      5.001  0.1029E+01  0.1639E+01  0.1368E+01  0.1579E+01
      5.117  0.9609E-01  0.2641E+01  0.1379E+01  0.1884E+01
      5.232 -0.2541E+00  0.2408E+01  0.1350E+01  0.2162E+01
      5.348  0.2647E+00  0.2756E+01  0.1380E+01  0.2480E+01
      5.463  0.2206E+01  0.3020E+01  0.1635E+01  0.2829E+01
      5.579  0.4250E+01  0.2708E+01  0.2126E+01  0.3141E+01
      5.694  0.4246E+01  0.3826E+01  0.2616E+01  0.3583E+01
      5.810  0.2106E+01  0.4631E+01  0.2859E+01  0.4118E+01
      5.925  0.1151E-01  0.4105E+01  0.2860E+01  0.4592E+01
      6.041  0.3212E+00  0.4302E+01  0.2897E+01  0.5088E+01
      6.156  0.3506E+01  0.2935E+01  0.3302E+01  0.5427E+01
      6.271  0.5608E+01  0.1274E+01  0.3950E+01  0.5574E+01
      6.387  0.3199E+01  0.2929E+01  0.4319E+01  0.5913E+01
      6.502  0.1270E+01  0.4681E+01  0.4466E+01  0.6453E+01
      6.618  0.3259E+01  0.4070E+01  0.4842E+01  0.6923E+01
      6.733  0.4530E+01  0.3461E+01  0.5365E+01  0.7322E+01
      6.849  0.3438E+01  0.4703E+01  0.5762E+01  0.7865E+01
      6.964  0.3273E+01  0.6769E+01  0.6140E+01  0.8647E+01
      7.080  0.2907E+01  0.6455E+01  0.6475E+01  0.9392E+01
      7.195  0.1654E+01  0.4368E+01  0.6666E+01  0.9896E+01
      7.310  0.2485E+01  0.4090E+01  0.6953E+01  0.1037E+02
      7.426  0.4893E+01  0.5639E+01  0.7518E+01  0.1102E+02
      7.541  0.6676E+01  0.7338E+01  0.8289E+01  0.1187E+02
      7.657  0.6603E+01  0.6501E+01  0.9051E+01  0.1262E+02
      7.772  0.4402E+01  0.3265E+01  0.9559E+01  0.1299E+02
      7.888  0.2809E+01  0.2677E+01  0.9884E+01  0.1330E+02
      8.003  0.4810E+01  0.4278E+01  0.1044E+02  0.1380E+02
      8.119  0.7631E+01  0.4680E+01  0.1132E+02  0.1434E+02
      8.234  0.7146E+01  0.6058E+01  0.1214E+02  0.1504E+02
      8.350  0.4484E+01  0.7359E+01  0.1266E+02  0.1589E+02
      8.465  0.2553E+01  0.5208E+01  0.1296E+02  0.1649E+02
      8.580  0.3020E+01  0.2789E+01  0.1331E+02  0.1681E+02
      8.696  0.4134E+01  0.4595E+01  0.1378E+02  0.1734E+02
      8.811  0.3523E+01  0.6928E+01  0.1419E+02  0.1814E+02
      8.927  0.5461E+01  0.6454E+01  0.1482E+02  0.1889E+02
      9.042  0.8643E+01  0.6986E+01  0.1582E+02  0.1969E+02
      9.158  0.6174E+01  0.7694E+01  0.1653E+02  0.2058E+02
      9.273  0.1858E+01  0.5234E+01  0.1675E+02  0.2118E+02
      9.389  0.1703E+01  0.1832E+01  0.1694E+02  0.2140E+02
      9.504  0.4608E+01  0.7300E-01  0.1747E+02  0.2140E+02
      9.620  0.6528E+01 -0.1841E+00  0.1823E+02  0.2138E+02
      9.735  0.5550E+01 -0.6115E-01  0.1887E+02  0.2138E+02
      9.850  0.6558E+01 -0.7996E-02  0.1963E+02  0.2138E+02
      9.966  0.8882E+01 -0.4884E-03  0.2065E+02  0.2138E+02
     10.081  0.5832E+01 -0.2825E-04  0.2132E+02  0.2137E+02
     10.197  0.1034E+01 -0.5097E-03  0.2144E+02  0.2137E+02
     10.312 -0.3910E+00 -0.9074E-02  0.2140E+02  0.2137E+02
     10.428 -0.1779E+00 -0.7176E-01  0.2138E+02  0.2137E+02
     10.543 -0.2566E-01 -0.1848E+00  0.2138E+02  0.2134E+02
     10.659 -0.1779E-02  0.3688E+00  0.2137E+02  0.2139E+02
     10.774 -0.2244E-02  0.2502E+01  0.2137E+02  0.2168E+02
     10.889 -0.2777E-01  0.4095E+01  0.2137E+02  0.2215E+02
     11.005 -0.1468E+00  0.2713E+01  0.2135E+02  0.2246E+02
     11.120 -0.1215E+00  0.5767E+00  0.2134E+02  0.2253E+02
     11.236  0.1329E+01 -0.1425E+00  0.2149E+02  0.2251E+02
     11.351  0.3966E+01 -0.8667E-01  0.2195E+02  0.2250E+02
     11.467  0.3865E+01 -0.1471E-01  0.2240E+02  0.2250E+02
     11.582  0.1197E+01 -0.1223E-02  0.2254E+02  0.2250E+02
     11.698 -0.1505E+00 -0.2446E-02  0.2252E+02  0.2250E+02
     11.813 -0.1388E+00 -0.2260E-01  0.2250E+02  0.2250E+02
     11.929 -0.2542E-01 -0.7397E-01  0.2250E+02  0.2249E+02
     12.044 -0.1522E-01  0.8955E-01  0.2250E+02  0.2250E+02
     12.159 -0.6199E-01  0.9003E+00  0.2249E+02  0.2260E+02
     12.275 -0.8924E-02  0.1516E+01  0.2249E+02  0.2278E+02
     12.390  0.6308E+00  0.8646E+00  0.2256E+02  0.2288E+02
     12.506  0.1466E+01  0.7347E-01  0.2273E+02  0.2289E+02
     12.621  0.1128E+01 -0.7308E-01  0.2286E+02  0.2288E+02
     12.737  0.2212E+00 -0.2482E-01  0.2289E+02  0.2287E+02
     12.852 -0.7467E-01 -0.3181E-01  0.2288E+02  0.2287E+02
     12.968 -0.3368E-01 -0.7602E-01  0.2288E+02  0.2286E+02
     13.083 -0.8129E-02  0.1732E+00  0.2287E+02  0.2288E+02
     13.199 -0.3042E-01  0.1056E+01  0.2287E+02  0.2300E+02
     13.314 -0.7585E-01  0.1492E+01  0.2286E+02  0.2318E+02
     13.429  0.1799E+00  0.7063E+00  0.2288E+02  0.2326E+02
     13.545  0.1067E+01  0.1369E-01  0.2301E+02  0.2326E+02
     13.660  0.1489E+01 -0.6606E-01  0.2318E+02  0.2325E+02
     13.776  0.6951E+00 -0.1570E-01  0.2326E+02  0.2325E+02
     13.891  0.1012E-01 -0.1656E-02  0.2326E+02  0.2325E+02
     14.007 -0.6548E-01 -0.5045E-02  0.2325E+02  0.2325E+02
     14.122 -0.1539E-01 -0.4631E-01  0.2325E+02  0.2324E+02
     14.238 -0.2670E-02 -0.1487E+00  0.2325E+02  0.2323E+02
     14.353 -0.1797E-01  0.1918E+00  0.2325E+02  0.2325E+02
     14.468 -0.1015E+00  0.1828E+01  0.2324E+02  0.2346E+02
     14.584 -0.9749E-01  0.3030E+01  0.2322E+02  0.2381E+02
     14.699  0.9092E+00  0.1702E+01  0.2333E+02  0.2401E+02
     14.815  0.2736E+01  0.1353E+00  0.2365E+02  0.2402E+02
     14.930  0.2578E+01 -0.1448E+00  0.2394E+02  0.2401E+02
     15.046  0.7200E+00 -0.4136E-01  0.2403E+02  0.2400E+02
     15.161 -0.1260E+00 -0.4219E-02  0.2401E+02  0.2400E+02
     15.277 -0.8806E-01 -0.1938E-03  0.2400E+02  0.2400E+02
     15.392 -0.1387E-01 -0.1160E-04  0.2400E+02  0.2400E+02
     15.508 -0.9189E-03 -0.2669E-03  0.2400E+02  0.2400E+02
     15.623 -0.2860E-04 -0.4608E-02  0.2400E+02  0.2400E+02
     15.738 -0.2628E-05 -0.3447E-01  0.2400E+02  0.2400E+02
     15.854 -0.9904E-04 -0.7409E-01  0.2400E+02  0.2399E+02
     15.969 -0.2146E-02  0.2338E+00  0.2400E+02  0.2401E+02
     16.085 -0.2092E-01  0.1145E+01  0.2400E+02  0.2415E+02
     16.200 -0.7264E-01  0.1459E+01  0.2399E+02  0.2431E+02
     16.316  0.7040E-01  0.6079E+00  0.2400E+02  0.2438E+02
     16.431  0.8575E+00 -0.4826E-01  0.2410E+02  0.2438E+02
     16.547  0.1514E+01 -0.1350E+00  0.2427E+02  0.2436E+02
     16.662  0.8958E+00  0.2196E+00  0.2437E+02  0.2439E+02
     16.778  0.3494E-01  0.1142E+01  0.2438E+02  0.2452E+02
     16.893 -0.1002E+00  0.1460E+01  0.2437E+02  0.2469E+02
     17.008  0.5413E+00  0.6143E+00  0.2443E+02  0.2476E+02
     17.124  0.1434E+01 -0.1342E-01  0.2459E+02  0.2476E+02
     17.239  0.1190E+01 -0.6123E-01  0.2473E+02  0.2475E+02
     17.355  0.2688E+00 -0.1833E-01  0.2476E+02  0.2475E+02
     17.470 -0.7232E-01 -0.4965E-01  0.2475E+02  0.2474E+02
     17.586 -0.4425E-01 -0.1500E+00  0.2475E+02  0.2473E+02
     17.701 -0.6343E-01  0.2181E+00  0.2474E+02  0.2475E+02
     17.817 -0.1522E+00  0.1881E+01  0.2472E+02  0.2497E+02
     17.932  0.3337E+00  0.3026E+01  0.2476E+02  0.2532E+02
     18.047  0.2091E+01  0.1648E+01  0.2500E+02  0.2551E+02
     18.163  0.2989E+01  0.1089E+00  0.2535E+02  0.2552E+02
     18.278  0.1434E+01 -0.1622E+00  0.2552E+02  0.2550E+02
     18.394  0.3295E-01 -0.4783E-01  0.2552E+02  0.2550E+02
     18.509 -0.1440E+00  0.1850E+00  0.2550E+02  0.2552E+02
     18.625 -0.5711E-01  0.4789E+00  0.2550E+02  0.2557E+02
     18.740  0.6653E-01  0.3960E+00  0.2550E+02  0.2562E+02
     18.856  0.3698E+00  0.8898E-01  0.2555E+02  0.2563E+02
     18.971  0.4913E+00 -0.2405E-01  0.2560E+02  0.2563E+02
     19.087  0.2167E+00 -0.1317E-01  0.2563E+02  0.2563E+02
     19.202 -0.1189E-02 -0.1447E-01  0.2563E+02  0.2562E+02
     19.317 -0.2201E-01 -0.8396E-01  0.2563E+02  0.2561E+02
     19.433 -0.1944E-01 -0.1326E+00  0.2562E+02  0.2560E+02
     19.548 -0.9167E-01  0.6629E+00  0.2561E+02  0.2567E+02
     19.664 -0.1202E+00  0.2521E+01  0.2560E+02  0.2597E+02
     19.779  0.7642E+00  0.2781E+01  0.2569E+02  0.2629E+02
     19.895  0.2619E+01  0.9734E+00  0.2599E+02  0.2640E+02
     20.010  0.2701E+01 -0.8625E-01  0.2630E+02  0.2639E+02
     20.126  0.8619E+00 -0.1149E+00  0.2640E+02  0.2638E+02
     20.241 -0.1063E+00 -0.7061E-01  0.2639E+02  0.2637E+02
     20.357 -0.1086E+00 -0.4896E-01  0.2638E+02  0.2636E+02
     20.472 -0.7181E-01  0.4615E+00  0.2637E+02  0.2642E+02
     20.587 -0.3769E-01  0.1373E+01  0.2636E+02  0.2657E+02
     20.703  0.5177E+00  0.1283E+01  0.2642E+02  0.2672E+02
     20.818  0.1410E+01  0.3537E+00  0.2659E+02  0.2676E+02
     20.934  0.1233E+01 -0.6380E-01  0.2673E+02  0.2676E+02
     21.049  0.3054E+00 -0.4501E-01  0.2676E+02  0.2675E+02
     21.165 -0.6915E-01 -0.2607E-01  0.2676E+02  0.2675E+02
     21.280 -0.4460E-01 -0.1059E+00  0.2675E+02  0.2674E+02
     21.396 -0.4990E-01 -0.8771E-01  0.2674E+02  0.2673E+02
     21.511 -0.1482E+00  0.9555E+00  0.2673E+02  0.2684E+02
     21.626  0.1548E+00  0.2718E+01  0.2675E+02  0.2715E+02
     21.742  0.1715E+01  0.2504E+01  0.2694E+02  0.2744E+02
     21.857  0.2995E+01  0.1247E+01  0.2729E+02  0.2758E+02
     21.973  0.2276E+01  0.1311E+01  0.2755E+02  0.2773E+02
     22.088  0.1570E+01  0.1092E+01  0.2773E+02  0.2786E+02
     22.204  0.1087E+01  0.2418E+00  0.2786E+02  0.2789E+02
     22.319  0.2625E+00 -0.1015E+00  0.2789E+02  0.2788E+02
     22.435 -0.8191E-01 -0.1306E+00  0.2788E+02  0.2786E+02
     22.550 -0.9669E-01  0.5605E-01  0.2787E+02  0.2787E+02
     22.666 -0.1137E+00  0.1028E+01  0.2786E+02  0.2799E+02
     22.781  0.3576E+00  0.2302E+01  0.2790E+02  0.2825E+02
     22.896  0.1790E+01  0.2290E+01  0.2810E+02  0.2852E+02
     23.012  0.2702E+01  0.1010E+01  0.2841E+02  0.2863E+02
     23.127  0.1691E+01  0.5452E-01  0.2861E+02  0.2864E+02
     23.243  0.2988E+00 -0.9672E-01  0.2864E+02  0.2863E+02
     23.358 -0.1127E+00 -0.5529E-01  0.2863E+02  0.2862E+02
     23.474 -0.7060E-01 -0.9939E-01  0.2862E+02  0.2861E+02
     23.589 -0.9345E-01  0.2448E-01  0.2861E+02  0.2861E+02
     23.705 -0.6277E-01  0.9138E+00  0.2861E+02  0.2872E+02
     23.820  0.6654E+00  0.2534E+01  0.2868E+02  0.2901E+02
     23.936  0.2369E+01  0.3591E+01  0.2896E+02  0.2943E+02
     24.051  0.3694E+01  0.2511E+01  0.2938E+02  0.2972E+02
     24.166  0.2754E+01  0.5481E+00  0.2970E+02  0.2978E+02
     24.282  0.6877E+00 -0.1552E+00  0.2978E+02  0.2976E+02
     24.397 -0.1469E+00 -0.8218E-01  0.2976E+02  0.2975E+02
     24.513 -0.9429E-01 -0.1196E-01  0.2975E+02  0.2975E+02
     24.628 -0.1491E-01 -0.7633E-03  0.2975E+02  0.2975E+02
     24.744 -0.1016E-02 -0.5501E-03  0.2975E+02  0.2975E+02
     24.859 -0.5346E-03 -0.9140E-02  0.2975E+02  0.2975E+02
     24.975 -0.8813E-02 -0.6861E-01  0.2975E+02  0.2974E+02
     25.090 -0.6722E-01 -0.1492E+00  0.2974E+02  0.2972E+02
     25.206 -0.1528E+00  0.4535E+00  0.2972E+02  0.2978E+02
     25.321  0.4184E+00  0.2242E+01  0.2977E+02  0.3003E+02
     25.436  0.2209E+01  0.2920E+01  0.3003E+02  0.3037E+02
     25.552  0.3110E+01  0.1672E+01  0.3039E+02  0.3057E+02
     25.667  0.2053E+01  0.9589E+00  0.3062E+02  0.3068E+02
     25.783  0.9400E+00  0.6112E+00  0.3073E+02  0.3075E+02
     25.898  0.2538E+00  0.1085E+00  0.3076E+02  0.3076E+02
     26.014 -0.4387E-01 -0.5242E-01  0.3076E+02  0.3075E+02
     26.129 -0.4098E-01 -0.2137E-01  0.3075E+02  0.3075E+02
     26.245 -0.7882E-02 -0.2873E-02  0.3075E+02  0.3075E+02
     26.360 -0.7439E-03 -0.3150E-02  0.3075E+02  0.3075E+02
     26.475 -0.2489E-02 -0.2618E-01  0.3075E+02  0.3075E+02
     26.591 -0.2298E-01 -0.7567E-01  0.3075E+02  0.3074E+02
     26.706 -0.7422E-01  0.1314E+00  0.3074E+02  0.3075E+02
     26.822  0.9390E-01  0.9837E+00  0.3075E+02  0.3087E+02
     26.937  0.9096E+00  0.1508E+01  0.3085E+02  0.3104E+02
     27.053  0.1515E+01  0.7804E+00  0.3103E+02  0.3113E+02
     27.168  0.8553E+00  0.3947E-01  0.3113E+02  0.3114E+02
     27.284  0.6946E-01 -0.6961E-01  0.3114E+02  0.3113E+02
     27.399 -0.7257E-01 -0.1813E-01  0.3113E+02  0.3113E+02
     27.515 -0.2084E-01 -0.1747E-02  0.3113E+02  0.3113E+02
     27.630 -0.2148E-02 -0.3066E-03  0.3113E+02  0.3112E+02
     27.745 -0.5504E-03 -0.4127E-02  0.3112E+02  0.3112E+02
     27.861 -0.6855E-02 -0.3216E-01  0.3112E+02  0.3112E+02
     27.976 -0.4373E-01 -0.7527E-01  0.3112E+02  0.3111E+02
     28.092 -0.6349E-01  0.2046E+00  0.3111E+02  0.3114E+02
     28.207  0.3559E+00  0.1104E+01  0.3115E+02  0.3126E+02
     28.323  0.1285E+01  0.1476E+01  0.3130E+02  0.3143E+02
     28.438  0.1371E+01  0.6558E+00  0.3146E+02  0.3151E+02
     28.554  0.4591E+00 -0.1813E-02  0.3151E+02  0.3151E+02
     28.669 -0.4797E-01 -0.6343E-01  0.3151E+02  0.3150E+02
     28.785 -0.5179E-01 -0.1597E-01  0.3150E+02  0.3150E+02
     28.900 -0.1893E-01 -0.1977E-01  0.3150E+02  0.3150E+02
     29.015 -0.5405E-01 -0.7018E-01  0.3149E+02  0.3149E+02
     29.131 -0.4140E-01  0.4399E-01  0.3149E+02  0.3149E+02
     29.246  0.4939E+00  0.7924E+00  0.3154E+02  0.3159E+02
     29.362  0.1395E+01  0.1510E+01  0.3171E+02  0.3176E+02
     29.477  0.1254E+01  0.9719E+00  0.3185E+02  0.3187E+02
     29.593  0.3253E+00  0.1251E+00  0.3189E+02  0.3189E+02
     29.708 -0.6696E-01 -0.7551E-01  0.3188E+02  0.3188E+02
     29.824 -0.4147E-01 -0.2564E-01  0.3188E+02  0.3188E+02
     29.939 -0.6255E-02 -0.2906E-02  0.3188E+02  0.3188E+02
     30.054 -0.4001E-03 -0.1463E-03  0.3188E+02  0.3188E+02
     30.170 -0.1204E-04 -0.3519E-05  0.3188E+02  0.3188E+02
     30.285 -0.1773E-06 -0.4168E-07  0.3188E+02  0.3188E+02
     30.401 -0.1299E-08 -0.2465E-09  0.3188E+02  0.3188E+02
     30.516 -0.4781E-11 -0.7587E-12  0.3188E+02  0.3187E+02
     30.632 -0.5574E-13 -0.1056E-10  0.3187E+02  0.3187E+02
     30.747 -0.1866E-10 -0.2297E-08  0.3187E+02  0.3187E+02
     30.863 -0.3789E-08 -0.2504E-06  0.3187E+02  0.3187E+02
     30.978 -0.3853E-06 -0.1353E-04  0.3187E+02  0.3187E+02
     31.094 -0.1939E-04 -0.3541E-03  0.3187E+02  0.3187E+02
     31.209 -0.4709E-03 -0.4266E-02  0.3187E+02  0.3187E+02
     31.324 -0.5223E-02 -0.2019E-01  0.3187E+02  0.3187E+02
     31.440 -0.2200E-01 -0.5043E-02  0.3187E+02  0.3187E+02
     31.555  0.4472E-02  0.2026E+00  0.3187E+02  0.3189E+02
     31.671  0.2351E+00  0.4856E+00  0.3190E+02  0.3195E+02
     31.786  0.4972E+00  0.3832E+00  0.3196E+02  0.3200E+02
     31.902  0.3522E+00  0.7901E-01  0.3200E+02  0.3200E+02
     32.017  0.5789E-01 -0.2464E-01  0.3200E+02  0.3200E+02
     32.133 -0.2530E-01 -0.1157E-01  0.3200E+02  0.3200E+02
     32.248 -0.9888E-02 -0.1554E-02  0.3200E+02  0.3200E+02
     32.364 -0.1212E-02 -0.9036E-04  0.3200E+02  0.3200E+02
     32.479 -0.6519E-04 -0.2488E-05  0.3200E+02  0.3200E+02
     32.594 -0.1670E-05 -0.3360E-07  0.3200E+02  0.3200E+02
     32.710 -0.2102E-07 -0.2262E-09  0.3200E+02  0.3200E+02
     32.825 -0.1321E-09 -0.7657E-12  0.3200E+02  0.3200E+02
     32.941 -0.4176E-12 -0.1442E-14  0.3200E+02  0.3200E+02
     33.056 -0.7212E-15  0.0000E+00  0.3200E+02  0.3200E+02
     33.172  0.0000E+00  0.0000E+00  0.3200E+02  0.3200E+02
     33.287  0.0000E+00  0.0000E+00  0.3200E+02  0.3200E+02
     33.403  0.0000E+00  0.0000E+00  0.3200E+02  0.3200E+02
     33.518  0.0000E+00  0.0000E+00  0.3200E+02  0.3200E+02
     33.633  0.0000E+00  0.0000E+00  0.3200E+02  0.3200E+02
     33.749  0.0000E+00  0.0000E+00  0.3200E+02  0.3200E+02
