LAMMPS (11 Aug 2017)
Reading data file ...
  triclinic box = (0 0 0) to (2.2961 3.9771 33.7408) with tilt (0 0 -0.0004)
  1 by 1 by 1 MPI processor grid
  reading atoms ...
  18 atoms
18 atoms in group Ni
Neighbor list info ...
  update every 1 steps, delay 0 steps, check yes
  max neighbors/atom: 2000, page size: 100000
  master list distance cutoff = 5.64464
  ghost atom cutoff = 5.64464
  binsize = 2.82232, bins = 1 2 12
  1 neighbor lists, perpetual/occasional/extra = 1 0 0
  (1) pair eam/alloy, perpetual
      attributes: half, newton on
      pair build: half/bin/newton/tri
      stencil: half/bin/3d/newton/tri
      bin: standard
Setting up cg style minimization ...
  Unit style    : metal
  Current step  : 0
Per MPI rank memory allocation (min/avg/max) = 4.217 | 4.217 | 4.217 Mbytes
Step PotEng Lx Ly Lz Xy Xz Yz Press Pxx Pyy Pzz Pxy Pxz Pyz c_eatoms 
       0   -102.76173       2.2961       3.9771      33.7408            0            0      -0.0004   -9021.3076   -10465.429    -10519.28   -6079.2135 -0.0052289934 -0.0015626463    9.8550668   -102.76173 
       1   -102.76518       2.2961       3.9771      33.7408            0            0      -0.0004   -8013.0072   -9856.1392   -9909.8642   -4273.0181 -3.2848783e-05 0.00044798689    9.7837991   -102.76518 
       2   -102.76615       2.2961       3.9771      33.7408            0            0      -0.0004   -7112.8708   -9308.3227   -9361.7439   -2668.5457 1.9811523e-05 1.1714743e-05    9.5590955   -102.76615 
       3   -102.76636       2.2961       3.9771      33.7408            0            0      -0.0004   -6859.6154   -9155.2191   -9208.2474   -2215.3796 -2.5169459e-05 -1.2611253e-05    9.2287748   -102.76636 
       4    -102.7664       2.2961       3.9771      33.7408            0            0      -0.0004   -6540.0214   -8961.3517   -9013.9788   -1644.7338 -4.9458106e-06 -2.4815184e-07    8.8945787    -102.7664 
       5   -102.76645       2.2961       3.9771      33.7408            0            0      -0.0004    -6264.164   -8795.3029   -8847.0912   -1150.0979 9.834123e-05 6.5246885e-05    8.1772029   -102.76645 
       6   -102.76654       2.2961       3.9771      33.7408            0            0      -0.0004   -5601.8486   -8398.2568   -8447.8484    40.559449 -5.4284423e-05 -3.9822597e-05    6.2957306   -102.76654 
       7   -102.76654       2.2961       3.9771      33.7408            0            0      -0.0004   -5610.8418   -8403.7747   -8453.3774    24.626598 4.9349637e-06 1.2178401e-06    6.3050214   -102.76654 
       8   -102.76654       2.2961       3.9771      33.7408            0            0      -0.0004   -5625.4715   -8412.7075   -8462.3069   -1.4002023 1.5265562e-06 9.3809936e-07    6.3013509   -102.76654 
       9   -102.76654       2.2961       3.9771      33.7408            0            0      -0.0004   -5626.6509   -8413.4374    -8463.017   -3.4982296 -3.6036126e-07 -5.0487759e-07    6.2841193   -102.76654 
      10   -102.76654       2.2961       3.9771      33.7408            0            0      -0.0004   -5626.7327   -8413.5098   -8463.0491   -3.6391806 -4.6294363e-08 -9.6359705e-08    6.2490316   -102.76654 
      11   -102.76654       2.2961       3.9771      33.7408            0            0      -0.0004   -5625.0825    -8412.767   -8461.7997    -0.680732 2.8407538e-06 3.1938629e-06     5.808368   -102.76654 
      12   -102.76654       2.2961       3.9771      33.7408            0            0      -0.0004    -5624.624   -8412.6582   -8461.3558   0.14184799 1.320548e-06 2.5381489e-06    5.5165887   -102.76654 
      13   -102.76654       2.2961       3.9771      33.7408            0            0      -0.0004   -5622.9729   -8412.4956   -8459.5311    3.1081185 -1.2806056e-06 4.2863058e-07    4.0690603   -102.76654 
      14   -102.76654       2.2961       3.9771      33.7408            0            0      -0.0004    -5622.241   -8412.5535   -8458.5918    4.4224185 -6.8939561e-07 1.0377431e-06    3.2005314   -102.76654 
      15   -102.76654       2.2961       3.9771      33.7408            0            0      -0.0004    -5622.024   -8412.7229   -8458.1595    4.8104517 8.8810257e-07 5.1500718e-07    2.6764395   -102.76654 
      16   -102.76654       2.2961       3.9771      33.7408            0            0      -0.0004   -5622.3337   -8413.4283   -8457.8252    4.2523188 1.956025e-06 1.5734963e-06     1.770824   -102.76654 
      17   -102.76654       2.2961       3.9771      33.7408            0            0      -0.0004   -5623.2529   -8414.6461   -8457.7146    2.6018789 2.4414706e-06 2.0190915e-07   0.61375744   -102.76654 
      18   -102.76654       2.2961       3.9771      33.7408            0            0      -0.0004    -5623.815   -8415.2626   -8457.7765    1.5940096 4.1998741e-07 6.8540799e-08   0.13068866   -102.76654 
      19   -102.76654       2.2961       3.9771      33.7408            0            0      -0.0004   -5624.1109   -8415.5245   -8457.8726    1.0643504 6.972789e-08 -5.1307854e-08 -0.013820466   -102.76654 
      20   -102.76654       2.2961       3.9771      33.7408            0            0      -0.0004   -5624.3132   -8415.6733   -8457.9683    0.7019328 -3.2153063e-07  -5.0388e-07 -0.060074898   -102.76654 
      21   -102.76654       2.2961       3.9771      33.7408            0            0      -0.0004   -5624.3624   -8415.7013   -8457.9987   0.61265806 -3.2056407e-07 -6.769575e-07 -0.057962694   -102.76654 
      22   -102.76654       2.2961       3.9771      33.7408            0            0      -0.0004   -5624.4984    -8415.765   -8458.0975   0.36746797 -2.4528565e-07 -5.3469412e-07 -0.027431679   -102.76654 
      23   -102.76654       2.2961       3.9771      33.7408            0            0      -0.0004   -5624.6532    -8415.846   -8458.2041  0.090626898 -1.3673103e-07 -2.4537037e-07 -0.0051235287   -102.76654 
      24   -102.76654       2.2961       3.9771      33.7408            0            0      -0.0004    -5624.688   -8415.8623   -8458.2298  0.028028553 -4.118172e-08 -6.9856485e-08 0.0031030576   -102.76654 
      25   -102.76654       2.2961       3.9771      33.7408            0            0      -0.0004   -5624.6979   -8415.8681    -8458.236  0.010345138 -1.7593908e-08 -2.8154611e-08 0.0034730177   -102.76654 
      26   -102.76654       2.2961       3.9771      33.7408            0            0      -0.0004   -5624.7062   -8415.8742     -8458.24 -0.0044655717 8.0530197e-09 1.3973606e-08 0.0016341533   -102.76654 
      27   -102.76654       2.2961       3.9771      33.7408            0            0      -0.0004   -5624.7042   -8415.8735   -8458.2383 -0.00095599097 8.7073988e-09 1.5222613e-08 0.00077157856   -102.76654 
      28   -102.76654       2.2961       3.9771      33.7408            0            0      -0.0004   -5624.7032   -8415.8734   -8458.2371 0.00076113167 6.3871962e-09 1.1071044e-08 -0.0001830636   -102.76654 
      29   -102.76654       2.2961       3.9771      33.7408            0            0      -0.0004   -5624.7034   -8415.8737    -8458.237 0.00053949494 3.8894712e-09 6.7491686e-09 -0.00051395922   -102.76654 
      30   -102.76654       2.2961       3.9771      33.7408            0            0      -0.0004   -5624.7034   -8415.8737    -8458.237 0.00041816241 2.9867052e-09 5.2213218e-09 -0.00056202557   -102.76654 
      31   -102.76654       2.2961       3.9771      33.7408            0            0      -0.0004   -5624.7036   -8415.8739   -8458.2371 9.3347829e-05 2.1617314e-09  3.75568e-09 -0.00059239254   -102.76654 
      32   -102.76654       2.2961       3.9771      33.7408            0            0      -0.0004   -5624.7037   -8415.8739   -8458.2371 3.6655319e-05 1.7973055e-09 3.1723098e-09 -0.00058779118   -102.76654 
      33   -102.76654       2.2961       3.9771      33.7408            0            0      -0.0004   -5624.7036   -8415.8739   -8458.2371 6.6892862e-05 1.3816434e-09 2.3461815e-09 -0.00057666175   -102.76654 
Loop time of 0.026433 on 1 procs for 33 steps with 18 atoms

11.4% CPU use with 1 MPI tasks x no OpenMP threads

Minimization stats:
  Stopping criterion = energy tolerance
  Energy initial, next-to-last, final = 
        -102.761732598     -102.766538487     -102.766538487
  Force two-norm initial, final = 0.41342 9.20214e-09
  Force max component initial, final = 0.15114 3.38916e-09
  Final line search alpha, max atom move = 1 3.38916e-09
  Iterations, force evaluations = 33 66

MPI task timing breakdown:
Section |  min time  |  avg time  |  max time  |%varavg| %total
---------------------------------------------------------------
Pair    | 0.0023603  | 0.0023603  | 0.0023603  |   0.0 |  8.93
Neigh   | 0          | 0          | 0          |   0.0 |  0.00
Comm    | 0.00016594 | 0.00016594 | 0.00016594 |   0.0 |  0.63
Output  | 0.023812   | 0.023812   | 0.023812   |   0.0 | 90.08
Modify  | 0          | 0          | 0          |   0.0 |  0.00
Other   |            | 9.513e-05  |            |       |  0.36

Nlocal:    18 ave 18 max 18 min
Histogram: 1 0 0 0 0 0 0 0 0 0
Nghost:    529 ave 529 max 529 min
Histogram: 1 0 0 0 0 0 0 0 0 0
Neighs:    678 ave 678 max 678 min
Histogram: 1 0 0 0 0 0 0 0 0 0

Total # of neighbors = 678
Ave neighs/atom = 37.6667
Neighbor list builds = 0
Dangerous builds = 0
pypospack:output_section:begin
tot_energy = -102.766538486565
num_atoms = 18
a11 = 2.2961
a22 = 3.9771
a33 = 33.7408
a12 = 0
a13 = 0
a23 = -0.0004
tot_press = -5624.70363739856
pxx = -8415.87386018165
pyy = -8458.23711890689
pzz = 6.68928621587609e-05
pxy = 1.38164340916703e-09
pxz = 2.34618147492105e-09
pyz = -0.000576661754242509
pypospack:output_section:done
pypospack:lammps_sim:done
Total wall time: 0:00:00
