# ['Ni']

10 atoms
1 atom types

    0.0000     3.3278 xlo xhi
    0.0000     2.3821 ylo yhi
    0.0000    23.8215 zlo zhi

    0.0000     0.0000     0.0000 xy xz yz

Atoms

1 1     0.0000     0.0000     0.0000
2 1     1.6639     1.1911     1.1911
3 1     0.0000     0.0000     2.3821
4 1     1.6639     1.1911     3.5732
5 1     0.0000     0.0000     4.7643
6 1     1.6639     1.1911     5.9554
7 1     0.0000     0.0000     7.1464
8 1     1.6639     1.1911     8.3375
9 1     0.0000     0.0000     9.5286
10 1     1.6639     1.1911    10.7197
