# ['Ni']

18 atoms
1 atom types

    0.0000    12.5171 xlo xhi
    0.0000    21.6804 ylo yhi
    0.0000   183.9339 zlo zhi

    0.0000     0.0000    -0.0020 xy xz yz

Atoms

1 1     0.0000     0.0000     0.0000
2 1     6.2586     3.6134    10.2186
3 1     0.0000     7.2268    20.4371
4 1     6.2586    10.8402     0.0000
5 1     0.0000    14.4536    10.2186
6 1     6.2586    18.0670    20.4371
7 1     0.0000     0.0000    30.6557
8 1     6.2586     3.6134    40.8742
9 1     0.0000     7.2268    51.0928
10 1     6.2586    10.8402    30.6557
11 1     0.0000    14.4536    40.8742
12 1     6.2586    18.0670    51.0928
13 1     0.0000     0.0000    61.3112
14 1     6.2586     3.6134    71.5299
15 1     0.0000     7.2268    81.7483
16 1     6.2586    10.8402    61.3112
17 1     0.0000    14.4536    71.5299
18 1     6.2586    18.0670    81.7483
